/*--------------------------------*- C++ -*----------------------------------*\
  =========                 |
  \\      /  F ield         | OpenFOAM: The Open Source CFD Toolbox
   \\    /   O peration     | Website:  https://openfoam.org
    \\  /    A nd           | Version:  10
     \\/     M anipulation  |
\*---------------------------------------------------------------------------*/
FoamFile
{
    format      ascii;
    class       volScalarField;
    location    "0";
    object      error;
}
// * * * * * * * * * * * * * * * * * * * * * * * * * * * * * * * * * * * * * //

dimensions      [0 0 0 0 0 0 0];

internalField   nonuniform List<scalar> 
7600
(
0.00742813
0.00750688
0.0075669
0.00750336
0.0074656
0.00746783
0.0075115
0.00756943
0.00761295
0.0076656
0.00821348
0.00791467
0.00785178
0.00776578
0.00771162
0.00771057
0.0077806
0.00795581
0.00836053
0.00937893
0.00883794
0.00834631
0.00814749
0.0080051
0.00791582
0.0078909
0.00794362
0.00810216
0.00846214
0.00920814
0.00936773
0.00875538
0.00843295
0.00821517
0.00806667
0.00798487
0.00796499
0.00801763
0.00815563
0.00840467
0.00986511
0.00914622
0.00870516
0.00840102
0.00818235
0.00802805
0.00791924
0.0078408
0.00776244
0.00762987
0.0103611
0.0095157
0.00895357
0.00855962
0.00826818
0.00804274
0.00785393
0.00767419
0.00746427
0.00716875
0.0108854
0.00986217
0.0091699
0.00868707
0.008328
0.0080425
0.00779562
0.00755842
0.00730055
0.00699029
0.0114739
0.0101781
0.00934445
0.00877894
0.00836262
0.00803195
0.00774902
0.00748875
0.00723282
0.00697022
0.0121833
0.0104437
0.00946329
0.00882874
0.00836977
0.0080089
0.0077063
0.00744105
0.00720363
0.0069939
0.0131098
0.0106078
0.00950635
0.00882906
0.00834602
0.00796881
0.00765651
0.00739081
0.00716747
0.00698812
0.0434398
0.00709446
0.00118445
0.00178785
0.00256777
0.00281416
0.00270421
0.00234399
0.00181554
0.00119745
0.0299792
0.00741816
0.00258377
0.00245507
0.0028975
0.00305039
0.00291852
0.00257771
0.00212384
0.00169393
0.0212443
0.00768439
0.00383694
0.00329686
0.00341294
0.00345563
0.00332351
0.00306006
0.00276789
0.00259261
0.0163751
0.00784197
0.00485208
0.00413209
0.00403105
0.00399576
0.00389553
0.00375117
0.00365625
0.00372121
0.0134046
0.0078792
0.0056261
0.00489158
0.00468534
0.00462029
0.00458236
0.0045888
0.00472769
0.00508717
0.0113852
0.00782309
0.00619552
0.0055483
0.00532159
0.0052661
0.00530656
0.00547501
0.00588065
0.00664201
0.00985022
0.00770143
0.0066065
0.00609919
0.00590165
0.00587181
0.00597203
0.0062567
0.00687989
0.00807493
0.00853902
0.0075438
0.00690872
0.00655556
0.00640841
0.00639651
0.00650663
0.00678035
0.00737348
0.00858162
0.00727529
0.00739589
0.00714587
0.00693455
0.00683468
0.00682623
0.0068937
0.00702683
0.00724905
0.00768064
0.00592146
0.00733438
0.00735636
0.00724737
0.00719128
0.00718656
0.00720952
0.00719482
0.00698203
0.0061699
0.00323031
0.00141626
0.000609108
0.000171928
0.000534792
0.00101502
0.00142042
0.00172177
0.00192608
0.00205119
0.00211638
0.00213651
0.00212378
0.00208681
0.00203286
0.0019669
0.00189331
0.00181494
0.00173437
0.00165318
0.00157286
0.00149415
0.0014179
0.00134435
0.00127394
0.00120665
0.0011427
0.00108192
0.00102443
0.000970015
0.000918705
0.000870279
0.000824737
0.00078185
0.000741596
0.000703742
0.000668244
0.000634868
0.000603543
0.00057403
0.00054623
0.000519902
0.000494927
0.000471078
0.000448241
0.000426232
0.000404978
0.000384365
0.00036438
0.000344984
0.000326208
0.000308056
0.000290559
0.000273723
0.000257542
0.000242005
0.000227066
0.000212704
0.000198857
0.000185515
0.000172622
0.00016019
0.000148171
0.00013659
0.0001254
0.000114626
0.000104214
9.41863e-05
8.44864e-05
7.51372e-05
6.60911e-05
5.73771e-05
4.89599e-05
4.08753e-05
3.30987e-05
2.56679e-05
1.85495e-05
1.17706e-05
5.2823e-06
1.68599e-06
0.00278071
0.00115848
0.000347029
0.000424103
0.000978909
0.0014693
0.00185054
0.00211764
0.0022868
0.00237987
0.00241622
0.00241087
0.00237523
0.00231784
0.00224531
0.00216261
0.00207362
0.00198122
0.00188764
0.00179451
0.00170305
0.00161408
0.0015282
0.00144575
0.00136698
0.00129195
0.00122071
0.00115319
0.00108934
0.00102904
0.000972191
0.000918646
0.000868292
0.00082097
0.000776555
0.000734879
0.000695808
0.000659161
0.000624791
0.000592501
0.000562128
0.000533464
0.000506336
0.000480542
0.000455927
0.000432323
0.000409628
0.00038774
0.000366628
0.000346253
0.00032664
0.000307781
0.000289707
0.0002724
0.000255863
0.00024005
0.000224929
0.000210445
0.000196553
0.00018321
0.000170381
0.000158042
0.00014617
0.000134754
0.000123764
0.000113193
0.000103002
9.31809e-05
8.36889e-05
7.45256e-05
6.56548e-05
5.70927e-05
4.88129e-05
4.08474e-05
3.31773e-05
2.58476e-05
1.88355e-05
1.22065e-05
6.06812e-06
3.1625e-06
0.00181139
0.000599205
0.000358597
0.00120543
0.00190631
0.00240276
0.00272676
0.0029204
0.00301738
0.00304579
0.00302436
0.00296805
0.00288655
0.00278823
0.00267842
0.00256204
0.00244202
0.00232132
0.00220146
0.0020842
0.00197019
0.00186042
0.00175506
0.0016546
0.00155891
0.00146822
0.00138227
0.00130113
0.00122448
0.00115234
0.00108437
0.00102055
0.000960564
0.000904351
0.000851625
0.000802291
0.000756078
0.000712864
0.000672385
0.000634487
0.000598912
0.000565479
0.000533946
0.000504128
0.000475825
0.000448881
0.000423171
0.000398592
0.000375105
0.000352656
0.000331265
0.000310887
0.000291553
0.00027319
0.000255808
0.000239298
0.000223655
0.000208752
0.000194594
0.000181059
0.000168177
0.000155839
0.000144086
0.000132811
0.000122053
0.000111698
0.000101778
9.2183e-05
8.29445e-05
7.39743e-05
6.53124e-05
5.69008e-05
4.87874e-05
4.09423e-05
3.34155e-05
2.6204e-05
1.93583e-05
1.29359e-05
7.28214e-06
4.79735e-06
0.000365502
0.000455434
0.00157604
0.0026958
0.00348661
0.00392081
0.00412369
0.00418876
0.00416724
0.0040909
0.00397736
0.00383984
0.00368609
0.0035231
0.00335487
0.00318552
0.00301709
0.00285204
0.0026913
0.00253631
0.00238732
0.00224511
0.00210953
0.00198098
0.00185906
0.00174395
0.00163517
0.00153276
0.00143623
0.00134557
0.00126032
0.00118041
0.00110542
0.00103527
0.000969579
0.00090823
0.000850865
0.000797349
0.000747339
0.000700671
0.000657014
0.000616182
0.00057787
0.000541885
0.000507975
0.000475973
0.000445711
0.000417071
0.000389976
0.00036435
0.000340181
0.000317396
0.000295998
0.000275883
0.000257041
0.000239325
0.000222721
0.000207063
0.000192349
0.000178421
0.000165304
0.000152851
0.000141103
0.000129915
0.000119328
0.000109192
9.95404e-05
9.02325e-05
8.13034e-05
7.26387e-05
6.42839e-05
5.61627e-05
4.83285e-05
4.07432e-05
3.34619e-05
2.64888e-05
1.98882e-05
1.37786e-05
8.62483e-06
6.46038e-06
0.00178382
0.00223638
0.00376738
0.00514223
0.00588815
0.00612971
0.00611426
0.00597912
0.00578397
0.00555773
0.00531389
0.00506178
0.00480636
0.00455226
0.00430189
0.00405792
0.00382143
0.00359394
0.00337577
0.00316772
0.00296961
0.00278182
0.00260389
0.00243591
0.00227728
0.00212793
0.00198724
0.00185507
0.00173081
0.00161429
0.00150495
0.00140261
0.00130677
0.00121724
0.00113356
0.00105554
0.000982736
0.000914954
0.000851781
0.000792994
0.000738203
0.000687169
0.000639535
0.000595064
0.000553458
0.000514508
0.000478005
0.000443787
0.000411741
0.000381746
0.000353753
0.000327644
0.000303389
0.000280839
0.000259956
0.00024055
0.000222579
0.000205839
0.000190305
0.000175781
0.000162271
0.000149593
0.000137772
0.000126629
0.000116191
0.000106278
9.69142e-05
8.79315e-05
7.9357e-05
7.1055e-05
6.3066e-05
5.52985e-05
4.78048e-05
4.0539e-05
3.356e-05
2.68755e-05
2.0569e-05
1.48012e-05
1.01029e-05
8.11041e-06
0.00441849
0.00519527
0.00735128
0.0088248
0.009274
0.00913952
0.00878669
0.008369
0.00793793
0.00751078
0.00709317
0.00668818
0.00629713
0.00592127
0.00556112
0.00521727
0.00488973
0.00457862
0.00428361
0.00400451
0.00374077
0.00349201
0.00325753
0.00303688
0.00282931
0.00263433
0.00245119
0.00227943
0.00211835
0.00196751
0.00182628
0.00169427
0.0015709
0.0014558
0.00134844
0.00124848
0.00115542
0.00106893
0.000988535
0.000913897
0.000844582
0.000780244
0.000720487
0.000664982
0.000613393
0.000565432
0.000520851
0.000479418
0.000440976
0.000405335
0.000372405
0.000342002
0.000314055
0.000288356
0.000264823
0.000243219
0.000223459
0.000205295
0.000188662
0.000173327
0.000159255
0.000146233
0.000134249
0.000123099
0.000112778
0.000103085
9.40157e-05
8.5385e-05
7.71966e-05
6.93015e-05
6.17227e-05
5.43589e-05
4.72531e-05
4.03536e-05
3.37199e-05
2.73599e-05
2.13789e-05
1.5956e-05
1.16478e-05
9.73834e-06
0.00734953
0.00982564
0.0127336
0.0139139
0.0137335
0.0130363
0.0122347
0.011455
0.0107238
0.0100402
0.00939962
0.00879735
0.00823063
0.00769649
0.0071934
0.00671921
0.00627281
0.00585241
0.00545702
0.00508506
0.00473559
0.0044072
0.00409899
0.00380968
0.00353841
0.00328404
0.0030458
0.00282266
0.00261391
0.00241868
0.00223632
0.00206604
0.00190727
0.00175931
0.00162163
0.00149359
0.00137468
0.00126432
0.00116203
0.00106725
0.000979534
0.000898352
0.000823285
0.000753857
0.000689706
0.000630415
0.000575703
0.000525224
0.000478783
0.000436086
0.000396994
0.000361236
0.000328683
0.000299054
0.000272208
0.00024785
0.000225834
0.000205867
0.000187822
0.00017143
0.000156598
0.000143085
0.000130824
0.000119591
0.00010933
9.98287e-05
9.10363e-05
8.27604e-05
7.49662e-05
6.74986e-05
6.03518e-05
5.34197e-05
4.67287e-05
4.02225e-05
3.3959e-05
2.79414e-05
2.22978e-05
1.7204e-05
1.32191e-05
1.13401e-05
0.00999206
0.0166713
0.0203515
0.0206445
0.0195631
0.0181846
0.0168497
0.0156277
0.0145174
0.0135006
0.0125645
0.0116968
0.0108913
0.0101402
0.00944002
0.0087853
0.00817373
0.00760108
0.00706565
0.00656401
0.00609483
0.00565525
0.00524416
0.00485914
0.00449925
0.0041624
0.00384778
0.00355359
0.00327913
0.00302284
0.00278408
0.00256151
0.00235454
0.00216198
0.00198328
0.00181739
0.00166379
0.0015215
0.00139004
0.00126852
0.00115647
0.00105309
0.000957935
0.000870295
0.000789777
0.00071577
0.000647951
0.000585805
0.00052908
0.000477338
0.000430367
0.000387773
0.000349348
0.000314712
0.000283641
0.000255763
0.000230848
0.000208548
0.000188651
0.000170849
0.000154966
0.000140735
0.000128011
0.000116556
0.000106243
9.68543e-05
8.82753e-05
8.03133e-05
7.28811e-05
6.58236e-05
5.90963e-05
5.25913e-05
4.63129e-05
4.02e-05
3.43068e-05
2.8628e-05
2.3313e-05
1.85188e-05
1.47962e-05
1.29166e-05
0.0129245
0.0264733
0.0308108
0.0297762
0.0277373
0.0256206
0.0236464
0.0218477
0.0202154
0.0187242
0.0173578
0.016098
0.0149353
0.013857
0.0128573
0.0119268
0.0110616
0.0102544
0.00950262
0.00880039
0.00814577
0.00753398
0.00696357
0.00643054
0.00593371
0.00546974
0.00503764
0.00463453
0.00425957
0.00391028
0.00358591
0.00328428
0.00300473
0.00274533
0.00250543
0.00228336
0.00207848
0.00188927
0.00171516
0.00155476
0.00140753
0.00127224
0.00114837
0.00103486
0.000931227
0.000836556
0.000750434
0.000672084
0.000601147
0.000536957
0.000479187
0.00042725
0.000380817
0.000339355
0.000302519
0.000269824
0.000240921
0.000215381
0.000192875
0.000173043
0.000155594
0.00014023
0.000126699
0.000114748
0.000104155
9.4698e-05
8.61826e-05
7.84165e-05
7.1248e-05
6.45234e-05
5.8151e-05
5.2022e-05
4.61133e-05
4.03582e-05
3.48048e-05
2.94357e-05
2.44191e-05
1.98845e-05
1.63694e-05
1.44731e-05
0.0141625
0.0264918
0.0285962
0.0279683
0.0264273
0.0246623
0.0229205
0.0212798
0.019762
0.0183557
0.0170539
0.0158424
0.0147163
0.0136653
0.0126865
0.0117716
0.0109187
0.010121
0.00937722
0.00868147
0.00803278
0.00742621
0.00686093
0.00633271
0.00584083
0.00538164
0.0049545
0.00455625
0.00418632
0.00384192
0.00352256
0.00322579
0.00295112
0.0026964
0.00246115
0.00224347
0.00204288
0.00185769
0.00168744
0.00153063
0.00138681
0.00125468
0.00113378
0.00102301
0.000921944
0.000829634
0.000745707
0.00066935
0.000600225
0.000537642
0.000481278
0.000430539
0.0003851
0.000344438
0.000308213
0.000275969
0.000247358
0.000221989
0.000199529
0.000179654
0.00016206
0.000146488
0.000132669
0.000120389
0.000109411
9.95536e-05
9.06115e-05
8.24288e-05
7.48455e-05
6.77357e-05
6.10005e-05
5.45485e-05
4.83531e-05
4.23561e-05
3.66111e-05
3.11018e-05
2.60151e-05
2.14703e-05
1.79836e-05
1.60267e-05
0.00731938
0.00650012
0.00261846
0.000864877
0.00075911
0.001261
0.00165461
0.0019284
0.00210711
0.00221476
0.00226723
0.0022798
0.00226149
0.00222168
0.00216519
0.00209799
0.00202261
0.00194301
0.00186035
0.0017773
0.00169418
0.00161282
0.00153301
0.00145605
0.00138147
0.00131023
0.00124172
0.00117669
0.00111448
0.00105569
0.000999666
0.000946902
0.000896748
0.000849635
0.000804936
0.000763021
0.000723294
0.000686075
0.000650793
0.00061772
0.000586308
0.000556781
0.000528611
0.000501984
0.000476405
0.000452045
0.000428469
0.000405862
0.000383882
0.000362745
0.000342202
0.000322487
0.000303417
0.000285203
0.000267677
0.000250996
0.000234981
0.000219728
0.000205058
0.000191035
0.000177513
0.000164555
0.00015207
0.00014013
0.000128683
0.000117791
0.000107414
9.75771e-05
8.8235e-05
7.93732e-05
7.09499e-05
6.29332e-05
5.53154e-05
4.80771e-05
4.12788e-05
3.49543e-05
2.93053e-05
2.45094e-05
2.09998e-05
1.90779e-05
0.00828776
0.00546608
0.00308368
0.00180599
0.00145755
0.00158251
0.00180374
0.00199579
0.00213422
0.00222134
0.00226444
0.00227271
0.00225341
0.0022136
0.00215817
0.00209188
0.00201778
0.00193902
0.00185734
0.0017748
0.00169231
0.00161114
0.00153167
0.00145472
0.00138031
0.00130898
0.00124056
0.00117541
0.00111326
0.00105435
0.00099839
0.000945522
0.000895438
0.000848241
0.000803615
0.000761629
0.000721969
0.000684677
0.000649442
0.000616282
0.000584888
0.000555256
0.000527084
0.000500355
0.000474785
0.000450364
0.000426853
0.000404271
0.000382442
0.000361426
0.00034111
0.000321581
0.000302765
0.000284744
0.000267445
0.00025092
0.000235082
0.000219947
0.000205422
0.000191511
0.000178137
0.000165312
0.000152992
0.000141201
0.000129919
0.000119168
0.00010893
9.92079e-05
8.99762e-05
8.12173e-05
7.29061e-05
6.50235e-05
5.75702e-05
5.05526e-05
4.40286e-05
3.80672e-05
3.28328e-05
2.85085e-05
2.53809e-05
2.36565e-05
0.00629607
0.00474179
0.00330873
0.00239068
0.00199463
0.00193165
0.00200707
0.00211068
0.00219801
0.00225569
0.00228216
0.00228098
0.00225659
0.002214
0.0021573
0.00209042
0.00201622
0.00193746
0.00185594
0.00177347
0.00169109
0.00160992
0.00153049
0.00145346
0.00137904
0.00130761
0.00123916
0.00117392
0.00111175
0.00105278
0.000996821
0.00094392
0.000893862
0.000846655
0.000802069
0.000760084
0.000720464
0.000683169
0.00064796
0.000614782
0.000583394
0.000553729
0.000525551
0.000498791
0.000473231
0.000448817
0.000425368
0.000402861
0.000381167
0.000360302
0.000340185
0.000320855
0.000302261
0.000284442
0.000267346
0.000250995
0.000235324
0.000220332
0.000205952
0.000192175
0.000178946
0.000166266
0.000154102
0.000142464
0.000131336
0.00012073
0.00011063
0.000101036
9.19274e-05
8.3293e-05
7.51174e-05
6.7393e-05
6.01294e-05
5.33473e-05
4.71074e-05
4.14868e-05
3.66265e-05
3.26807e-05
2.98478e-05
2.8262e-05
0.00501239
0.00424147
0.00337809
0.00273152
0.00237061
0.00223053
0.00221374
0.00224571
0.00228438
0.00231048
0.00231694
0.00230308
0.00227076
0.00222314
0.0021633
0.00209437
0.00201889
0.00193922
0.00185711
0.00177415
0.00169141
0.0016099
0.0015302
0.00145291
0.00137828
0.00130663
0.00123803
0.00117263
0.00111037
0.0010513
0.00099529
0.000942338
0.000892273
0.000845051
0.000800483
0.000758502
0.000718909
0.000681621
0.000646435
0.000613257
0.000581881
0.000552209
0.000524043
0.000497285
0.000471757
0.000447381
0.000424012
0.000401602
0.000380049
0.000359341
0.000339414
0.00032028
0.000301894
0.000284272
0.000267372
0.000251195
0.000235692
0.000220852
0.000206622
0.000192988
0.000179908
0.000167376
0.000155366
0.000143881
0.000132907
0.000122448
0.000112491
0.000103034
9.40634e-05
8.55715e-05
7.75512e-05
7.00041e-05
6.29462e-05
5.64073e-05
5.04471e-05
4.51422e-05
4.06092e-05
3.69715e-05
3.43647e-05
3.2873e-05
0.00445073
0.00397634
0.00341692
0.00294906
0.00263968
0.00247357
0.00240397
0.00238459
0.00238264
0.00237919
0.00236501
0.00233692
0.00229488
0.00224053
0.00217604
0.00210381
0.00202598
0.00194455
0.00186112
0.00177711
0.00169354
0.00161133
0.00153105
0.00145325
0.00137821
0.0013062
0.00123732
0.00117167
0.00110922
0.00104999
0.000993883
0.000940843
0.000890734
0.000843474
0.000798901
0.000756912
0.000717334
0.000680051
0.000644885
0.000611715
0.00058036
0.000550698
0.000522559
0.000495827
0.000470351
0.000446037
0.000422762
0.000400465
0.000379059
0.000358513
0.000338774
0.000319831
0.000301647
0.000284218
0.000267509
0.000251508
0.000236176
0.000221494
0.00020742
0.000193936
0.00018101
0.000168631
0.000156777
0.000145447
0.000134627
0.000124318
0.000114511
0.0001052
9.6379e-05
8.80432e-05
8.01921e-05
7.28337e-05
6.59888e-05
5.96915e-05
5.39982e-05
4.89793e-05
4.4729e-05
4.13421e-05
3.89096e-05
3.74812e-05
0.00423367
0.00387443
0.00347062
0.00311185
0.00284558
0.00267378
0.00257451
0.00251978
0.00248586
0.00245664
0.00242286
0.00238023
0.00232754
0.00226538
0.00219513
0.0021186
0.00203752
0.00195358
0.00186819
0.00178259
0.00169775
0.00161448
0.00153333
0.00145479
0.00137913
0.00130661
0.0012373
0.00117129
0.00110857
0.00104911
0.000992828
0.000939654
0.000889453
0.000842125
0.000797513
0.000755497
0.000715911
0.000678624
0.000643467
0.000610304
0.000578966
0.000549323
0.000521216
0.000494523
0.000469106
0.000444867
0.000421693
0.000399515
0.000378255
0.00035787
0.00033831
0.000319553
0.000301561
0.00028432
0.000267795
0.000251969
0.000236805
0.000222283
0.000208368
0.000195038
0.000182267
0.000170042
0.000158345
0.00014717
0.000136507
0.000126352
0.000116698
0.000107541
9.8878e-05
9.07077e-05
8.30341e-05
7.58698e-05
6.92379e-05
6.31737e-05
5.77285e-05
5.29637e-05
4.89539e-05
4.57693e-05
4.34695e-05
4.20805e-05
0.00417045
0.00386897
0.00354846
0.0032538
0.00301764
0.00284629
0.0027295
0.00265013
0.00259134
0.00254025
0.00248852
0.00243169
0.00236797
0.00229729
0.00222046
0.0021388
0.0020537
0.00196657
0.00187861
0.00179092
0.00170437
0.00161966
0.00153733
0.00145779
0.00138131
0.00130808
0.00123819
0.00117171
0.00110859
0.00104881
0.000992282
0.000938907
0.000888555
0.000841109
0.000796415
0.000754338
0.000714714
0.000677401
0.000642233
0.000609066
0.000577738
0.000548111
0.000520034
0.000493385
0.00046803
0.00044387
0.000420798
0.000398741
0.000377624
0.000357397
0.00033801
0.000319432
0.000301624
0.000284565
0.00026822
0.000252568
0.000237573
0.000223214
0.000209458
0.000196286
0.000183674
0.000171606
0.000160067
0.00014905
0.000138544
0.000128546
0.00011905
0.000110053
0.000101554
9.35541e-05
8.60617e-05
7.90914e-05
7.26672e-05
6.68233e-05
6.16048e-05
5.70633e-05
5.32563e-05
5.02346e-05
4.80351e-05
4.6668e-05
0.00417963
0.00391779
0.00364585
0.00338957
0.00317268
0.00300225
0.00287371
0.00277619
0.00269762
0.00262789
0.00255992
0.00248953
0.00241475
0.00233515
0.00225117
0.00216376
0.00207402
0.00198312
0.00189208
0.00180185
0.00171319
0.00162673
0.00154294
0.00146217
0.00138465
0.00131056
0.00123996
0.00117287
0.00110927
0.00104909
0.000992232
0.000938597
0.000888042
0.000840437
0.000795623
0.000753455
0.000713767
0.000676409
0.000641214
0.000608033
0.000576707
0.000547094
0.000519047
0.000492442
0.000467152
0.000443073
0.000420103
0.000398168
0.00037719
0.000357117
0.000337895
0.00031949
0.00030186
0.000284977
0.000268807
0.000253325
0.000238498
0.000224301
0.000210707
0.000197693
0.000185239
0.000173329
0.000161949
0.000151091
0.000140744
0.000130906
0.00012157
0.000112735
0.000104402
9.65753e-05
8.92635e-05
8.2483e-05
7.62574e-05
7.06178e-05
6.56031e-05
6.12553e-05
5.76176e-05
5.47253e-05
5.25995e-05
5.12393e-05
0.00422892
0.00399869
0.00375845
0.003526
0.00332075
0.00315009
0.00301231
0.00290033
0.00280531
0.00271932
0.0026365
0.00255316
0.00246739
0.00237862
0.00228705
0.00219336
0.00209845
0.00200325
0.00190866
0.00181547
0.00172433
0.00163579
0.00155025
0.00146801
0.00138926
0.00131413
0.00124267
0.00117486
0.00111066
0.00104998
0.000992728
0.000938766
0.000887951
0.000840137
0.000795161
0.000752868
0.000713086
0.000675659
0.000640417
0.000607209
0.000575874
0.000546268
0.000518248
0.000491686
0.000466458
0.00044246
0.000419592
0.000397775
0.000376933
0.00035701
0.000337949
0.000319711
0.000302253
0.000285543
0.000269545
0.000254232
0.000239571
0.000225538
0.000212105
0.000199252
0.000186958
0.000175208
0.000163988
0.000153289
0.000143102
0.000133424
0.00012425
0.000115579
0.000107413
9.97571e-05
9.26223e-05
8.60245e-05
7.99855e-05
7.45333e-05
6.96999e-05
6.55188e-05
6.20215e-05
5.92313e-05
5.71577e-05
5.57931e-05
0.00430504
0.0041008
0.00388304
0.00366594
0.00346737
0.00329489
0.00314874
0.00302422
0.00291476
0.0028141
0.00271743
0.00262161
0.00252495
0.00242681
0.0023273
0.00222692
0.00212637
0.00202645
0.00192789
0.00183136
0.00173742
0.00164651
0.00155898
0.00147506
0.00139491
0.0013186
0.00124614
0.0011775
0.00111261
0.00105137
0.000993652
0.00093931
0.000888189
0.00084013
0.000794961
0.000752516
0.00071262
0.000675109
0.00063981
0.000606567
0.000575218
0.000545618
0.000517623
0.000491106
0.000465942
0.000442027
0.000419261
0.000397563
0.000376856
0.000357079
0.000338176
0.000320102
0.000302812
0.000286271
0.000270442
0.000255296
0.000240801
0.000226931
0.00021366
0.000200968
0.000188834
0.000177243
0.000166183
0.000155644
0.000145617
0.000136099
0.000127086
0.000118577
0.000110576
0.000103088
9.61239e-05
8.96992e-05
8.38334e-05
7.85507e-05
7.38769e-05
6.98378e-05
6.64555e-05
6.37439e-05
6.17046e-05
6.03252e-05
0.00440323
0.00422005
0.00401862
0.00381178
0.00361641
0.00344075
0.00328629
0.0031501
0.00302726
0.00291282
0.0028029
0.00269487
0.00258729
0.00247958
0.00237179
0.00226431
0.00215772
0.00205266
0.00194974
0.00184952
0.00175245
0.0016589
0.00156914
0.00148334
0.0014016
0.00132395
0.00125037
0.00118081
0.00111514
0.00105326
0.000995004
0.000940227
0.000888753
0.00084041
0.000795015
0.000752393
0.000712361
0.000674748
0.000639379
0.000606091
0.000574723
0.000545126
0.000517155
0.000490683
0.000465584
0.000441753
0.00041909
0.00039751
0.000376937
0.000357306
0.000338557
0.000320644
0.00030352
0.000287147
0.000271486
0.000256506
0.000242177
0.000228471
0.000215362
0.000202832
0.000190858
0.000179428
0.000168527
0.000158147
0.00014828
0.000138921
0.000130066
0.000121718
0.000113878
0.000106552
9.97509e-05
9.34885e-05
8.7782e-05
8.26513e-05
7.81171e-05
7.41981e-05
7.09092e-05
6.8257e-05
6.62375e-05
6.4835e-05
0.00452216
0.00435505
0.00416561
0.00396506
0.0037704
0.00359014
0.00342699
0.00327932
0.00314349
0.00301567
0.00289271
0.00277251
0.00265388
0.00253635
0.00241994
0.00230499
0.00219195
0.00208137
0.00197374
0.00186951
0.00176904
0.00167261
0.0015804
0.00149254
0.00140906
0.00132995
0.00125515
0.00118455
0.00111804
0.00105545
0.000996617
0.000941366
0.000889508
0.000840855
0.000795214
0.000752399
0.00071222
0.0006745
0.000639056
0.000605724
0.000574337
0.000544746
0.000516805
0.000490382
0.000465353
0.000441611
0.000419055
0.000397597
0.000377159
0.000357675
0.000339082
0.00032133
0.000304371
0.000288165
0.000272671
0.000257859
0.000243695
0.000230153
0.000217208
0.000204838
0.000193026
0.000181755
0.000171013
0.000160791
0.000151081
0.000141879
0.000133181
0.000124989
0.000117304
0.000110134
0.000103486
9.73748e-05
9.18133e-05
8.68181e-05
8.24049e-05
7.85867e-05
7.53725e-05
7.27635e-05
7.07514e-05
6.93189e-05
0.00466183
0.00450667
0.00432509
0.00412798
0.00393176
0.00374562
0.00357307
0.00341361
0.00326472
0.00312344
0.00298736
0.00285481
0.00272485
0.00259715
0.00247174
0.00234891
0.00222904
0.00211256
0.00199987
0.00189132
0.00178716
0.0016876
0.00159274
0.00150264
0.00141727
0.00133657
0.00126044
0.00118873
0.00112129
0.00105794
0.000998481
0.000942716
0.000890439
0.00084145
0.000795542
0.000752519
0.000712183
0.000674346
0.000638824
0.000605445
0.000574041
0.000544458
0.000516548
0.00049018
0.000465226
0.000441577
0.000419131
0.000397799
0.000377499
0.000358163
0.000339727
0.000322138
0.000305344
0.000289305
0.00027398
0.000259335
0.000245338
0.000231961
0.000219179
0.000206972
0.000195319
0.000184208
0.000173624
0.000163559
0.000154004
0.000144956
0.000136411
0.00012837
0.000120835
0.000113813
0.00010731
0.000101338
9.5908e-05
9.10332e-05
8.67248e-05
8.29912e-05
7.98363e-05
7.72575e-05
7.52437e-05
7.37761e-05
0.0048236
0.00467603
0.00449906
0.00430236
0.00410256
0.00390899
0.00372604
0.00355413
0.00339167
0.00323655
0.00308695
0.00294164
0.00279994
0.00266164
0.00252679
0.00239565
0.00226853
0.00214579
0.0020277
0.00191452
0.00180643
0.00170351
0.00160581
0.00151331
0.00142592
0.00134353
0.00126598
0.0011931
0.00112468
0.00106052
0.00100039
0.000944085
0.000891373
0.000842035
0.000795853
0.000752618
0.000712124
0.000674174
0.000638579
0.000605161
0.000573748
0.000544183
0.000516316
0.000490012
0.000465143
0.000441597
0.00041927
0.00039807
0.000377915
0.000358733
0.000340458
0.000323034
0.00030641
0.000290541
0.000275386
0.00026091
0.000247081
0.00023387
0.000221253
0.000209208
0.000197716
0.000186764
0.000176337
0.000166426
0.000157024
0.000148127
0.000139731
0.000131836
0.000124445
0.000117563
0.000111196
0.000105353
0.000100043
9.52753e-05
9.1058e-05
8.73955e-05
8.4288e-05
8.17298e-05
7.97077e-05
7.82024e-05
0.00500881
0.00486548
0.00468954
0.00449073
0.0042851
0.00408246
0.0038878
0.00370241
0.00352555
0.00335586
0.0031921
0.00303342
0.00287941
0.00272996
0.00258516
0.00244524
0.00231045
0.00218104
0.00205721
0.00193911
0.00182681
0.00172032
0.00161959
0.00152453
0.001435
0.0013508
0.00127175
0.00119761
0.00112816
0.00106314
0.00100232
0.000945449
0.000892282
0.000842581
0.000796117
0.000752665
0.000712012
0.000673951
0.000638287
0.000604836
0.000573422
0.000543884
0.000516069
0.000489839
0.000465064
0.00044163
0.00041943
0.00039837
0.000378366
0.000359343
0.000341234
0.000323979
0.000307528
0.000291832
0.00027685
0.000262546
0.000248887
0.000235844
0.000223393
0.000211511
0.00020018
0.000189386
0.000179115
0.000169358
0.000160107
0.000151358
0.000143107
0.000135355
0.000128102
0.000121354
0.000115114
0.000109391
0.000104191
9.95208e-05
9.53843e-05
9.17833e-05
8.87149e-05
8.61712e-05
8.41379e-05
8.25956e-05
0.00522042
0.00507736
0.00489941
0.00469543
0.00448164
0.00426792
0.0040599
0.00385964
0.00366719
0.0034819
0.00330306
0.00313021
0.00296315
0.00280188
0.00264654
0.00249731
0.00235437
0.0022179
0.00208798
0.00196465
0.00184789
0.00173761
0.00163369
0.00153593
0.00144413
0.00135804
0.00127741
0.00120197
0.00113144
0.00106554
0.00100401
0.000946554
0.000892927
0.000842865
0.000796123
0.000752464
0.000711663
0.000673505
0.000637788
0.00060432
0.000572923
0.000543429
0.000515685
0.000489545
0.000464882
0.000441574
0.000419516
0.000398609
0.000378767
0.000359913
0.000341979
0.000324902
0.000308629
0.000293112
0.000278309
0.000264181
0.000250696
0.000237824
0.000225541
0.000213824
0.000202656
0.000192021
0.000181906
0.000172302
0.000163201
0.000154598
0.00014649
0.000138877
0.000131759
0.00012514
0.000119023
0.000113413
0.000108317
0.000103736
9.96744e-05
9.61294e-05
9.30963e-05
9.05655e-05
8.85222e-05
8.6948e-05
0.00546106
0.00531506
0.00513158
0.00491951
0.00469478
0.00446765
0.00424424
0.00402735
0.0038178
0.00361557
0.0034205
0.00323246
0.00305147
0.0028776
0.00271104
0.00255191
0.00240033
0.00225635
0.00211996
0.0019911
0.00186963
0.00175535
0.00164804
0.00154744
0.00145326
0.00136519
0.00128292
0.00120611
0.00113447
0.00106766
0.00100539
0.00094735
0.000893258
0.000842834
0.00079582
0.00075196
0.000711023
0.00067278
0.000637025
0.000603556
0.000572193
0.00054276
0.000515102
0.00048907
0.000464534
0.000441367
0.000419464
0.000398722
0.000379055
0.00036038
0.00034263
0.000325738
0.000309652
0.00029432
0.0002797
0.000265753
0.000252446
0.000239749
0.000227638
0.000216089
0.000205086
0.000194611
0.000184654
0.000175204
0.000166253
0.000157796
0.000149831
0.000142355
0.00013537
0.000128877
0.00012288
0.000117382
0.000112385
0.000107892
0.000103902
0.000100412
9.74141e-05
9.48986e-05
9.28502e-05
9.12531e-05
0.00573483
0.00558215
0.00538978
0.00516596
0.00492719
0.00468385
0.00444258
0.00420687
0.00397829
0.00375749
0.00354475
0.00334029
0.00314429
0.00295693
0.00277837
0.00260869
0.00244791
0.00229597
0.00215275
0.00201803
0.00189159
0.00177311
0.00166226
0.00155869
0.00146204
0.0013719
0.00128793
0.00120973
0.00113695
0.00106922
0.00100621
0.000947585
0.000893038
0.000842267
0.000794999
0.00075096
0.00070991
0.000671607
0.000635839
0.000602395
0.000571091
0.000541744
0.000514198
0.000488298
0.00046391
0.000440907
0.000419178
0.000398619
0.000379141
0.00036066
0.000343106
0.00032641
0.000310521
0.000295383
0.000280955
0.000267196
0.000254074
0.000241557
0.000229623
0.000218246
0.000207411
0.0001971
0.000187303
0.000178008
0.00016921
0.000160901
0.000153079
0.000145742
0.00013889
0.000132524
0.000126647
0.000121259
0.000116362
0.000111957
0.00010804
0.000104607
0.000101649
9.91552e-05
9.71097e-05
9.55002e-05
0.00604357
0.00588312
0.00567782
0.00543833
0.00518188
0.00491906
0.00465696
0.0043998
0.0041499
0.00390852
0.00367642
0.00345409
0.00324188
0.00304
0.0028486
0.00266766
0.00249711
0.00233673
0.00218629
0.00204542
0.00191375
0.00179087
0.00167633
0.00156967
0.00147045
0.00137819
0.00129247
0.00121284
0.0011389
0.00107024
0.00100649
0.00094729
0.0008923
0.000841197
0.000793691
0.000749494
0.000708352
0.000670011
0.000634253
0.000600858
0.000569637
0.0005404
0.000512988
0.000487239
0.000463021
0.000440198
0.000418662
0.000398301
0.000379027
0.000360752
0.000343406
0.000326918
0.000311234
0.000296298
0.00028207
0.000268506
0.000255575
0.000243244
0.00023149
0.00022029
0.000209627
0.000199484
0.00018985
0.000180714
0.00017207
0.000163911
0.000156234
0.000149037
0.000142319
0.000136081
0.000130324
0.000125048
0.000120252
0.000115935
0.000112094
0.000108721
0.000105806
0.000103338
0.000101302
9.96852e-05
0.00639316
0.00622279
0.00599981
0.00574081
0.00546322
0.00517743
0.00489107
0.0046092
0.00433503
0.00407051
0.00381689
0.0035749
0.00334502
0.00312746
0.00292226
0.0027293
0.00254834
0.00237902
0.00222092
0.00207353
0.00193635
0.00180881
0.00169037
0.00158044
0.0014785
0.00138399
0.00129642
0.00121528
0.00114011
0.00107047
0.00100594
0.000946128
0.000890675
0.000839233
0.00079149
0.000747145
0.000705927
0.000667574
0.000631855
0.000598544
0.000567443
0.00053836
0.000511125
0.000485578
0.000461576
0.000438984
0.000417686
0.000397572
0.000378547
0.000360523
0.000343426
0.000327185