/*--------------------------------*- C++ -*----------------------------------*\
  =========                 |
  \\      /  F ield         | OpenFOAM: The Open Source CFD Toolbox
   \\    /   O peration     | Website:  https://openfoam.org
    \\  /    A nd           | Version:  10
     \\/     M anipulation  |
\*---------------------------------------------------------------------------*/
FoamFile
{
    format      ascii;
    class       surfaceScalarField;
    location    "0";
    object      phi;
}
// * * * * * * * * * * * * * * * * * * * * * * * * * * * * * * * * * * * * * //

dimensions      [0 3 -1 0 0 0 0];

internalField   nonuniform List<scalar> 
14980
(
0.00986289
-0.139306
0.129443
0.0183829
-0.121668
0.113147
0.0261128
-0.110503
0.102772
0.033316
-0.103004
0.0958007
0.0401486
-0.0977297
0.0908967
0.0467105
-0.0938783
0.0873157
0.0530701
-0.0909777
0.0846172
0.0592796
-0.088735
0.082524
0.0653937
-0.0869624
0.0808469
-0.0855465
0.0794287
0.0715098
0.00898322
-0.14829
0.0167676
-0.129453
0.0238229
-0.117559
0.0303946
-0.109577
0.0366281
-0.103964
0.0426161
-0.0998679
0.0484223
-0.0967859
0.0540936
-0.0944085
0.059667
-0.0925378
-0.0910458
0.0651654
0.00805832
-0.156349
0.0150517
-0.136447
0.0213869
-0.123895
0.027286
-0.115477
0.0328811
-0.10956
0.0382564
-0.105244
0.0434688
-0.102
0.0485585
-0.0994996
0.0535539
-0.0975344
-0.0959643
0.0584719
0.00709025
-0.163439
0.0132462
-0.142603
0.0188206
-0.129469
0.0240097
-0.120666
0.0289308
-0.114482
0.0336584
-0.109973
0.0382424
-0.106584
0.0427172
-0.103975
0.0471068
-0.101925
-0.100285
0.051427
0.00608339
-0.169523
0.0113625
-0.147883
0.0161401
-0.134247
0.020586
-0.125112
0.0248016
-0.118698
0.0288511
-0.114023
0.0327771
-0.110512
0.0366091
-0.107808
0.0403675
-0.105684
-0.103984
0.0440664
0.0050437
-0.174567
0.00941259
-0.152252
0.0133623
-0.138197
0.0170362
-0.128787
0.0205192
-0.122181
0.0238647
-0.117369
0.027108
-0.113756
0.0302733
-0.110974
0.0333778
-0.108788
-0.10704
0.0364336
0.00397845
-0.178545
0.00740897
-0.155683
0.0105047
-0.141293
0.0133825
-0.131665
0.0161104
-0.12491
0.0187305
-0.11999
0.0212704
-0.116296
0.0237494
-0.113454
0.026181
-0.11122
-0.109434
0.0285745
0.00289643
-0.181442
0.00536475
-0.158151
0.00758494
-0.143513
0.00964748
-0.133727
0.0116024
-0.126865
0.0134803
-0.121868
0.0153009
-0.118117
0.0170779
-0.115231
0.0188213
-0.112964
-0.11115
0.0205376
0.00180875
-0.183251
0.00329333
-0.159636
0.00462091
-0.144841
0.00585387
-0.134961
0.00702304
-0.128034
0.00814663
-0.122992
0.00923633
-0.119208
0.0103003
-0.116296
0.0113444
-0.114008
-0.112178
0.0123725
0.000730488
-0.183981
0.0012075
-0.160113
0.00163009
-0.145264
0.00202455
-0.135355
0.00240023
-0.12841
0.00276235
-0.123354
0.00311427
-0.11956
0.00345847
-0.11664
0.00379683
-0.114346
0.00413031
-0.112512
0.014448
-0.0144473
-7.66268e-07
0.0270064
-0.012558
-7.26116e-07
0.0384023
-0.0113955
-6.89288e-07
0.0490252
-0.0106226
-6.04029e-07
0.059108
-0.0100826
-4.81938e-07
0.0687986
-0.00969075
-3.64238e-07
0.0781961
-0.00939797
-3.21551e-07
0.087369
-0.00917386
-4.08896e-07
0.0963666
-0.00899865
-5.7607e-07
-0.00885898
0.105225
-7.16525e-07
0.0143371
-0.0287855
0.0268206
-0.0250424
0.0381493
-0.022725
0.0487093
-0.0211834
0.0587317
-0.020106
0.0683638
-0.0193244
0.0777041
-0.0187402
0.0868211
-0.018293
0.095764
-0.0179432
-0.0176642
0.104569
0.0141438
-0.0429295
0.0264715
-0.0373705
0.0376612
-0.0339152
0.0480918
-0.0316144
0.0579909
-0.0300058
0.0675039
-0.0288384
0.0767282
-0.027966
0.085732
-0.0272983
0.0945646
-0.0267766
-0.0263613
0.103262
0.0138661
-0.0567958
0.0259601
-0.049465
0.0369407
-0.0448962
0.0471766
-0.0418509
0.0568903
-0.0397204
0.0662244
-0.0381736
0.0752745
-0.0370175
0.084108
-0.0361331
0.092774
-0.0354432
-0.0348956
0.101309
0.0135036
-0.0702997
0.0252887
-0.0612506
0.0359918
-0.0555998
0.0459695
-0.0518292
0.0554373
-0.0491891
0.0645339
-0.0472711
0.0733522
-0.0458372
0.0819587
-0.0447406
0.0904018
-0.0438867
-0.0432116
0.0987181
0.0130567
-0.0833568
0.0244603
-0.0726547
0.0348201
-0.0659602
0.0444782
-0.0614879
0.0536417
-0.0583535
0.0624439
-0.0560744
0.0709745
-0.0543691
0.0792977
-0.0530647
0.0874612
-0.0520505
-0.0512525
0.0955023
0.0125263
-0.0958833
0.0234788
-0.0836078
0.0334327
-0.0759147
0.0427125
-0.0707683
0.0515157
-0.0671575
0.0599693
-0.064529
0.0681585
-0.0625594
0.0761436
-0.0610507
0.0839704
-0.0598775
-0.0589586
0.0916764
0.0119126
-0.107796
0.022349
-0.0940448
0.0318379
-0.0854042
0.0406837
-0.0796149
0.0490738
-0.0755484
0.0571281
-0.0725843
0.0649261
-0.0703587
0.0725224
-0.068648
0.0799561
-0.0673117
-0.0662637
0.0872609
0.011215
-0.119012
0.0210767
-0.103907
0.0300454
-0.0943734
0.0384051
-0.0879752
0.0463325
-0.0834767
0.053941
-0.0801938
0.0613042
-0.0777231
0.0684692
-0.0758143
0.0754623
-0.0743055
-0.073095
0.0822928
0.0104297
0.0196689
0.0280667
0.035891
0.0433095
0.0504295
0.0573213
0.064029
0.0705688
0.0769023
0.109735
-0.00450838
-2.04859e-06
0.112085
-0.00234825
4.7481e-07
0.113462
-0.00137675
7.72219e-07
0.114308
-0.000846879
5.70437e-07
0.114841
-0.000533622
5.20199e-07
0.115177
-0.000336857
4.91714e-07
0.115384
-0.000207329
5.68414e-07
0.115502
-0.000118829
5.34482e-07
0.115558
-5.65235e-05
5.71578e-07
0.115569
-1.13702e-05
4.52646e-07
0.115546
2.19157e-05
5.13586e-07
0.115499
4.70699e-05
4.67929e-07
0.115432
6.63221e-05
4.71607e-07
0.11535
8.13763e-05
3.72178e-07
0.115256
9.32105e-05
3.4278e-07
0.115153
0.000102682
2.52329e-07
0.115042
0.000110228
2.47898e-07
0.114926
0.000116326
2.14477e-07
0.114804
0.000121239
2.30555e-07
0.114679
0.000125302
1.92773e-07
0.11455
0.000128642
1.83366e-07
0.114418
0.00013141
1.48353e-07
0.114284
0.000133665
1.54831e-07
0.114149
0.000135558
1.33955e-07
0.114011
0.000137115
1.50235e-07
0.113873
0.000138437
1.25413e-07
0.113733
0.000139527
1.24754e-07
0.113593
0.000140449
1.05342e-07
0.113451
0.000141195
1.24441e-07
0.11331
0.000141841
1.08313e-07
0.113167
0.000142364
1.23112e-07
0.113024
0.000142822
1.06326e-07
0.112881
0.000143187
1.20574e-07
0.112737
0.000143514
1.06241e-07
0.112593
0.000143766
1.2301e-07
0.112449
0.000143992
1.11582e-07
0.112305
0.000144168
1.27625e-07
0.112161
0.000144338
1.12666e-07
0.112016
0.000144463
1.23877e-07
0.111872
0.000144588
1.05735e-07
0.111727
0.000144669
1.21965e-07
0.111582
0.000144754
1.12069e-07
0.111437
0.000144808
1.27081e-07
0.111292
0.000144872
1.14348e-07
0.111147
0.000144911
1.28773e-07
0.111002
0.000144963
1.13312e-07
0.110857
0.000144988
1.24964e-07
0.110712
0.000145026
1.11461e-07
0.110567
0.00014504
1.24649e-07
0.110422
0.00014507
1.09435e-07
0.110276
0.000145077
1.22799e-07
0.110131
0.0001451
1.09357e-07
0.109986
0.000145104
1.20716e-07
0.109841
0.000145125
1.04846e-07
0.109696
0.000145125
1.16131e-07
0.10955
0.000145143
1.01293e-07
0.109405
0.000145142
1.11283e-07
0.10926
0.000145159
9.53396e-08
0.109115
0.000145157
1.0488e-07
0.108969
0.000145173
8.85256e-08
0.108824
0.000145172
9.6869e-08
0.108679
0.000145187
7.96276e-08
0.108534
0.000145186
8.69107e-08
0.108388
0.000145201
6.88558e-08
0.108243
0.0001452
7.52588e-08
0.108098
0.000145216
5.6579e-08
0.107953
0.000145214
6.25087e-08
0.107807
0.00014523
4.36193e-08
0.107662
0.000145229
4.95953e-08
0.107517
0.000145245
3.08234e-08
0.107372
0.000145243
3.75171e-08
0.107226
0.000145258
1.92239e-08
0.107081
0.000145255
2.69318e-08
0.106936
0.000145269
9.43606e-09
0.106791
0.000145264
1.86071e-08
0.106645
0.000145277
2.10219e-09
0.1065
0.000145271
1.26597e-08
0.106355
0.000145282
-3.47913e-09
0.106209
0.000145273
7.49522e-09
0.00014528
-3.90597e-09
0.109012
-0.00894255
0.111362
-0.0046911
0.11275
-0.00276382
0.113608
-0.00170624
0.114152
-0.00107814
0.1145
-0.000683408
0.114717
-0.000423921
0.114846
-0.000247042
0.114911
-0.000122392
0.114932
-3.22415e-05
0.114919
3.45283e-05
0.114881
8.47899e-05
0.114823
0.000123391
0.11475
0.000153407
0.114666
0.000177103
0.114572
0.000195974
0.114471
0.000211217
0.114363
0.000223494
0.114251
0.000233453
0.114134
0.000241577
0.114015
0.00024833
0.113892
0.000253901
0.113767
0.000258497
0.113641
0.000262278
0.113513
0.000265445
0.113383
0.000268076
0.113253
0.000270309
0.113121
0.000272149
0.112989
0.000273687
0.112856
0.000274959
0.112723
0.00027604
0.112589
0.000276933
0.112455
0.000277698
0.11232
0.000278329
0.112185
0.000278878
0.11205
0.000279314
0.111915
0.000279686
0.11178
0.000279989
0.111644
0.00028026
0.111509
0.000280479
0.111373
0.000280676
0.111237
0.000280821
0.111102
0.00028095
0.110966
0.000281041
0.11083
0.000281122
0.110694
0.000281178
0.110558
0.000281241
0.110422
0.00028128
0.110286
0.000281321
0.11015
0.000281345
0.110013
0.000281375
0.109877
0.000281388
0.109741
0.000281408
0.109605
0.000281419
0.109469
0.000281441
0.109333
0.000281449
0.109197
0.000281466
0.10906
0.000281471
0.108924
0.000281486
0.108788
0.000281489
0.108652
0.000281502
0.108516
0.000281505
0.108379
0.000281519
0.108243
0.000281522
0.108107
0.000281536
0.107971
0.00028154
0.107835
0.000281553
0.107699
0.000281554
0.107562
0.000281563
0.107426
0.000281561
0.10729
0.000281566
0.107154
0.000281558
0.107018
0.000281558
0.106881
0.000281548
0.106745
0.000281544
0.106609
0.000281531
0.106473
0.000281527
0.106337
0.000281516
0.1062
0.000281514
0.000281501
0.107571
-0.0132505
0.109921
-0.00704061
0.11133
-0.00417241
0.112212
-0.002589
0.11278
-0.00164644
0.11315
-0.00105313
0.113388
-0.000662496
0.113537
-0.000395917
0.113622
-0.000208065
0.113662
-7.22226e-05
0.113668
2.83426e-05
0.113649
0.000104071
0.11361
0.000162164
0.113556
0.000207332
0.113489
0.000242965
0.113414
0.000271337
0.113331
0.000294212
0.113242
0.000312636
0.113147
0.000327566
0.113049
0.000339755
0.112947
0.000349869
0.112843
0.000358213
0.112737
0.000365087
0.112628
0.000370758
0.112518
0.000375509
0.112407
0.000379452
0.112294
0.000382779
0.112181
0.000385535
0.112067
0.000387838
0.111952
0.000389748
0.111837
0.000391368
0.111721
0.000392709
0.111605
0.000393853
0.111488
0.000394804
0.111372
0.000395621
0.111255
0.000396274
0.111138
0.000396835
0.11102
0.000397297
0.110903
0.000397704
0.110785
0.000398032
0.110668
0.000398324
0.11055
0.000398546
0.110432
0.000398742
0.110315
0.000398884
0.110197
0.000399014
0.110079
0.00039911
0.109961
0.000399207
0.109843
0.000399272
0.109725
0.000399337
0.109607
0.000399378
0.109489
0.000399425
0.109371
0.00039945
0.109253
0.000399483
0.109135
0.000399502
0.109017
0.000399532
0.108899
0.000399546
0.108781
0.00039957
0.108663
0.000399579
0.108544
0.000399598
0.108426
0.000399604
0.108308
0.000399621
0.10819
0.000399625
0.108072
0.000399642
0.107954
0.000399646
0.107836
0.000399663
0.107718
0.000399666
0.1076
0.000399681
0.107482
0.000399682
0.107363
0.000399693
0.107245
0.000399689
0.107127
0.000399695
0.107009
0.000399687
0.106891
0.000399688
0.106773
0.000399676
0.106655
0.000399674
0.106537
0.00039966
0.106419
0.000399657
0.1063
0.000399643
0.106182
0.000399641
0.000399626
0.105419
-0.0173601
0.107769
-0.00938967
0.10921
-0.00561311
0.110129
-0.00350824
0.110732
-0.00224979
0.111135
-0.00145587
0.111405
-0.000932512
0.111584
-0.000575045
0.111699
-0.00032316
0.111767
-0.00014101
0.111802
-6.19891e-06
0.11181
9.53493e-05
0.111799
0.000173176
0.111772
0.000233683
0.111734
0.000281384
0.111686
0.000319352
0.11163
0.000349931
0.111568
0.000374578
0.111501
0.000394532
0.111429
0.000410819
0.111355
0.000424315
0.111278
0.000435462
0.111198
0.000444634
0.111117
0.000452211
0.111034
0.00045856
0.110949
0.000463819
0.110864
0.000468241
0.110777
0.000471927
0.11069
0.000475
0.110603
0.000477553
0.110514
0.000479712
0.110426
0.000481504
0.110336
0.000483025
0.110247
0.0004843
0.110157
0.000485385
0.110067
0.000486259
0.109977
0.000487005
0.109887
0.000487631
0.109797
0.00048817
0.109706
0.000488609
0.109615
0.000488993
0.109525
0.000489297
0.109434
0.000489556
0.109343
0.000489752
0.109252
0.000489929
0.109161
0.000490065
0.10907
0.000490192
0.108979
0.000490286
0.108888
0.000490373
0.108797
0.000490432
0.108706
0.000490494
0.108615
0.000490534
0.108524
0.000490577
0.108433
0.000490605
0.108342
0.000490642
0.108251
0.000490664
0.10816
0.000490692
0.108069
0.000490706
0.107978
0.000490729
0.107887
0.000490738
0.107796
0.000490758
0.107704
0.000490765
0.107613
0.000490783
0.107522
0.000490789
0.107431
0.000490806
0.10734
0.000490811
0.107249
0.000490826
0.107158
0.000490828
0.107067
0.000490839
0.106975
0.000490836
0.106884
0.000490841
0.106793
0.000490834
0.106702
0.000490834
0.106611
0.000490822
0.10652
0.000490819
0.106429
0.000490804
0.106338
0.0004908
0.106246
0.000490786
0.106155
0.000490782
0.000490767
0.102571
-0.021212
0.104919
-0.0117375
0.106403
-0.00709641
0.107371
-0.00447619
0.108021
-0.00289991
0.108467
-0.00190265
0.108779
-0.0012444
0.108998
-0.000794409
0.109152
-0.00047733
0.109259
-0.000248025
0.109331
-7.83408e-05
0.109376
4.95055e-05
0.109402
0.000147404
0.109412
0.000223499
0.10941
0.000283456
0.109398
0.000331153
0.109378
0.000369524
0.109352
0.000400487
0.109321
0.000425545
0.109285
0.000445982
0.109247
0.000462887
0.109205
0.000476871
0.109162
0.000488367
0.109116
0.000497875
0.109069
0.000505839
0.10902
0.000512424
0.108971
0.000517938
0.10892
0.000522571
0.108869
0.000526425
0.108816
0.000529624
0.108764
0.000532325
0.108711
0.000534572
0.108658
0.000536471
0.108604
0.000538073
0.10855
0.000539428
0.108496
0.000540527
0.108441
0.000541457
0.108387
0.000542247
0.108332
0.000542918
0.108277
0.000543467
0.108222
0.000543944
0.108167
0.000544332
0.108112
0.000544652
0.108057
0.000544904
0.108002
0.000545127
0.107947
0.000545303
0.107892
0.000545459
0.107836
0.000545583
0.107781
0.00054569
0.107726
0.000545767
0.107671
0.000545844
0.107615
0.000545899
0.10756
0.000545951
0.107504
0.000545989
0.107449
0.000546033
0.107394
0.000546062
0.107338
0.000546095
0.107283
0.000546115
0.107228
0.000546139
0.107172
0.000546153
0.107117
0.000546174
0.107061
0.000546185
0.107006
0.000546203
0.106951
0.000546213
0.106895
0.000546229
0.10684
0.000546237
0.106784
0.000546251
0.106729
0.000546255
0.106674
0.000546264
0.106618
0.000546263
0.106563
0.000546267
0.106507
0.00054626
0.106452
0.000546259
0.106397
0.000546248
0.106341
0.000546243
0.106286
0.000546229
0.10623
0.000546222
0.106175
0.000546209
0.10612
0.000546201
0.000546186
0.0990423
-0.0247511
0.101389
-0.0140831
0.102925
-0.00863253
0.103954
-0.00550454
0.104661
-0.00360817
0.105163
-0.00240427
0.105526
-0.00160839
0.105795
-0.00106378
0.105998
-0.000679996
0.106152
-0.000402433
0.106271
-0.000197066
0.106362
-4.23213e-05
0.106433
7.60932e-05
0.106489
0.000168087
0.106531
0.000240533
0.106564
0.00029813
0.106589
0.000344398
0.106608
0.000381776
0.106621
0.000412042
0.10663
0.000436704
0.106636
0.000457052
0.106639
0.000473902
0.10664
0.00048776
0.106638
0.000499222
0.106635
0.00050882
0.106631
0.000516749
0.106626
0.000523357
0.10662
0.000528946
0.106612
0.000533596
0.106605
0.000537446
0.106596
0.000540688
0.106588
0.000543399
0.106578
0.000545677
0.106569
0.000547602
0.106559
0.00054923
0.106549
0.000550565
0.106539
0.000551679
0.106529
0.000552628
0.106518
0.00055343
0.106508
0.000554092
0.106497
0.000554661
0.106486
0.000555132
0.106476
0.000555515
0.106465
0.000555824
0.106454
0.000556091
0.106443
0.000556308
0.106432
0.000556492
0.106421
0.000556645
0.10641
0.000556772
0.106399
0.000556869
0.106388
0.000556958
0.106377
0.00055703
0.106365
0.000557091
0.106354
0.000557139
0.106343
0.000557188
0.106332
0.000557226
0.106321
0.000557262
0.10631
0.000557288
0.106299
0.000557314
0.106287
0.000557334
0.106276
0.000557355
0.106265
0.00055737
0.106254
0.000557388
0.106243
0.000557401
0.106232
0.000557417
0.106221
0.000557427
0.106209
0.000557439
0.106198
0.000557446
0.106187
0.000557453
0.106176
0.000557454
0.106165
0.000557456
0.106154
0.00055745
0.106142
0.000557447
0.106131
0.000557437
0.10612
0.000557429
0.106109
0.000557416
0.106098
0.000557407
0.106087
0.000557394
0.106075
0.000557383
0.000557368
0.0948526
-0.0279265
0.0971962
-0.016426
0.0987957
-0.0102321
0.0998967
-0.00660544
0.100674
-0.00438646
0.101241
-0.00297179
0.101667
-0.00203479
0.101996
-0.0013929
0.102256
-0.000940424
0.102467
-0.000613181
0.10264
-0.000371154
0.102787
-0.000188799
0.102912
-4.93043e-05
0.103021
5.8989e-05
0.103117
0.000144191
0.103203
0.000211903
0.103281
0.000266211
0.103353
0.00031011
0.103419
0.000345698
0.103481
0.000374686
0.103539
0.000398527
0.103595
0.000418272
0.103648
0.00043454
0.103699
0.000447987
0.103749
0.000459223
0.103797
0.00046853
0.103844
0.00047626
0.10389
0.000482796
0.103936
0.000488245
0.103981
0.000492762
0.104025
0.000496551
0.104068
0.000499733
0.104112
0.000502396
0.104155
0.00050464
0.104198
0.000506539
0.10424
0.000508122
0.104282
0.000509423
0.104325
0.000510526
0.104367
0.000511459
0.104409
0.000512238
0.10445
0.000512898
0.104492
0.00051345
0.104534
0.000513896
0.104575
0.000514266
0.104617
0.000514577
0.104659
0.000514834
0.1047
0.000515046
0.104741
0.000515228
0.104783
0.000515373
0.104824
0.000515491
0.104866
0.000515593
0.104907
0.000515681
0.104948
0.000515751
0.10499
0.00051581
0.105031
0.000515863
0.105073
0.00051591
0.105114
0.000515948
0.105155
0.000515981
0.105197
0.000516009
0.105238
0.000516034
0.105279
0.000516055
0.105321
0.000516075
0.105362
0.000516093
0.105403
0.000516109
0.105444
0.000516124
0.105486
0.000516137
0.105527
0.000516148
0.105568
0.000516157
0.10561
0.000516162
0.105651
0.000516165
0.105692
0.000516164
0.105734
0.000516161
0.105775
0.000516154
0.105816
0.000516145
0.105858
0.000516135
0.105899
0.000516123
0.10594
0.000516111
0.105982
0.0005161
0.106023
0.000516085
0.000516071
0.0900247
-0.03069
0.092364
-0.0187645
0.0940378
-0.0119059
0.0952237
-0.00779122
0.0960831
-0.00524651
0.0967267
-0.00361605
0.0972248
-0.00253355
0.0976227
-0.00179111
0.0979494
-0.00126747
0.0982247
-0.000888784
0.0984623
-0.000608926
0.0986714
-0.000398158
0.0988589
-0.000236961
0.0990296
-0.000111882
0.0991872
-1.3589e-05
0.0993345
6.44782e-05
0.0994735
0.000127024
0.099606
0.000177559
0.0997331
0.000218548
0.0998558
0.000251965
0.0999748
0.000279394
0.100091
0.00030208
0.100205
0.000320785
0.100317
0.000336242
0.100427
0.000349125
0.100535
0.000359846
0.100643
0.000368743
0.10075
0.000376217
0.100855
0.000382448
0.100961
0.000387649
0.101065
0.000391999
0.101169
0.000395658
0.101273
0.000398713
0.101377
0.000401281
0.10148
0.000403446
0.101583
0.000405268
0.101685
0.000406765
0.101788
0.00040803
0.10189
0.000409093
0.101993
0.00040999
0.102095
0.000410738
0.102197
0.000411368
0.102299
0.000411879
0.102401
0.000412312
0.102503
0.000412666
0.102605
0.000412964
0.102707
0.000413205
0.102809
0.000413413
0.102911
0.000413577
0.103012
0.000413718
0.103114
0.000413831
0.103216
0.000413933
0.103318
0.000414012
0.103419
0.000414084
0.103521
0.000414141
0.103623
0.000414196
0.103725
0.000414237
0.103826
0.000414277
0.103928
0.000414306
0.10403
0.000414336
0.104132
0.000414358
0.104233
0.000414382
0.104335
0.000414399
0.104437
0.000414419
0.104539
0.000414432
0.10464
0.000414449
0.104742
0.000414457
0.104844
0.000414469
0.104945
0.000414472
0.105047
0.000414477
0.105149
0.000414473
0.105251
0.000414471
0.105352
0.000414462
0.105454
0.000414455
0.105556
0.000414441
0.105657
0.000414431
0.105759
0.000414415
0.105861
0.000414405
0.105962
0.000414388
0.000414373
0.0846237
-0.0330207
0.0869475
-0.0210875
0.0886979
-0.0136566
0.0899755
-0.00906901
0.0909244
-0.00619632
0.0916528
-0.0043452
0.0922311
-0.00311266
0.0927057
-0.00226621
0.0931068
-0.00166895
0.0934547
-0.00123698
0.0937634
-0.000918004
0.0940431
-0.000678005
0.0943004
-0.000494562
0.0945405
-0.000352198
0.0947671
-0.000240407
0.0949832
-0.000151706
0.0951907
-8.06788e-05
0.0953916
-2.33917e-05
0.095587
2.29995e-05
0.095778
6.09131e-05
0.0959653
9.20884e-05
0.0961495
0.000117802
0.0963314
0.000138923
0.0965112
0.000156408
0.0966894
0.000170989
0.0968661
0.000183132
0.0970417
0.000193228
0.0972163
0.00020167
0.0973901
0.000208665
0.0975633
0.000214544
0.0977358
0.000219475
0.0979079
0.000223616
0.0980796
0.000227068
0.098251
0.00022998
0.0984221
0.000232414
0.098593
0.00023445
0.0987637
0.000236139
0.0989342
0.000237587
0.0991045
0.000238786
0.0992748
0.000239798
0.099445
0.000240635
0.0996151
0.000241341
0.0997851
0.000241916
0.099955
0.000242406
0.100125
0.000242804
0.100295
0.000243147
0.100465
0.000243419
0.100634
0.000243654
0.100804
0.000243836
0.100974
0.000243998
0.101144
0.000244123
0.101313
0.000244238
0.101483
0.000244324
0.101653
0.00024441
0.101823
0.000244474
0.101992
0.000244536
0.102162
0.000244579
0.102332
0.000244626
0.102501
0.000244656
0.102671
0.000244691
0.102841
0.000244713
0.10301
0.000244741
0.10318
0.000244758
0.10335
0.000244781
0.103519
0.000244793
0.103689
0.000244813
0.103859
0.00024482
0.104028
0.000244834
0.104198
0.000244835
0.104368
0.000244841
0.104537
0.000244835
0.104707
0.000244835
0.104877
0.000244822
0.105046
0.000244817
0.105216
0.0002448
0.105386
0.000244791
0.105555
0.000244773
0.105725
0.000244763
0.105895
0.000244744
0.000244729
0.0788933
-0.0350115
0.0810816
-0.0232749
0.0828562
-0.0154313
0.0842084
-0.0104215
0.0852435
-0.00723216
0.0860584
-0.00516081
0.0867214
-0.00377623
0.0872784
-0.00282362
0.08776
-0.00215095
0.0881871
-0.00166434
0.088574
-0.00130513
0.0889309
-0.00103513
0.0892651
-0.00082891
0.0895816
-0.000668878
0.0898843
-0.000543246
0.0901761
-0.00044364
0.0904593
-0.000363932
0.0907356
-0.000299775
0.0910064
-0.000247914
0.0912728
-0.000205474
0.0915353
-0.000170486
0.0917948
-0.000141686
0.0920519
-0.000118124
0.0923069
-9.85878e-05
0.0925602
-8.22697e-05
0.092812
-6.87127e-05
0.0930627
-5.74186e-05
0.0933124
-4.79791e-05
0.0935613
-4.01973e-05
0.0938096
-3.36517e-05
0.0940572
-2.81408e-05
0.0943044
-2.35171e-05
0.0945512
-1.96646e-05
0.0947976
-1.64029e-05
0.0950438
-1.36917e-05
0.0952898
-1.14475e-05
0.0955355
-9.56848e-06
0.0957811
-7.93998e-06
0.0960265
-6.59883e-06
0.0962719
-5.47357e-06
0.0965171
-4.54251e-06
0.0967623
-3.75932e-06
0.0970074
-3.12437e-06
0.0972524
-2.58136e-06
0.0974974
-2.13635e-06
0.0977423
-1.75003e-06
0.0979872
-1.44336e-06
0.0982321
-1.18003e-06
0.0984769
-9.7879e-07
0.0987218
-8.00458e-07
0.0989666
-6.60553e-07
0.0992114
-5.3438e-07
0.0994562
-4.38763e-07
0.099701
-3.41029e-07
0.0999457
-2.69351e-07
0.10019
-2.0133e-07
0.100435
-1.5433e-07
0.10068
-1.03175e-07
0.100925
-7.0027e-08
0.101169
-3.12824e-08
0.101414
-7.71342e-09
0.101659
2.30828e-08
0.101904
4.02961e-08
0.102148
6.56199e-08
0.102393
7.81001e-08
0.102638
9.84747e-08
0.102883
1.05725e-07
0.103127
1.19949e-07
0.103372
1.20411e-07
0.103617
1.27372e-07
0.103862
1.20502e-07
0.104106
1.20281e-07
0.104351
1.06907e-07
0.104596
1.01036e-07
0.104841
8.33362e-08
0.105085
7.45618e-08
0.10533
5.55781e-08
0.105575
4.5368e-08
0.105819
2.56244e-08
9.48518e-09
0.294538
-0.0282731
-0.301276
0.292228
-0.020964
0.291897
-0.0151007
0.292322
-0.0108462
0.292958
-0.00786977
0.293596
-0.00579887
0.294163
-0.00434409
0.294645
-0.00330598
0.295045
-0.00255227
0.295376
-0.00199544
0.295648
-0.00157741
0.295871
-0.00125891
0.296055
-0.00101297
0.296207
-0.000820653
0.296332
-0.0006687
0.296435
-0.000547551
0.296522
-0.000450208
0.296593
-0.000371503
0.296653
-0.000307525
0.296702
-0.000255148
0.296744
-0.000212044
0.296778
-0.000176504
0.296807
-0.000147194
0.296832
-0.000122894
0.296852
-0.000102669
0.296869
-8.58273e-05
0.296884
-7.17883e-05
0.296896
-6.00692e-05
0.296906
-5.03119e-05
0.296914
-4.21398e-05
0.296922
-3.52843e-05
0.296928
-2.9534e-05
0.296933
-2.47201e-05
0.296937
-2.06742e-05
0.296941
-1.72915e-05
0.296944
-1.44655e-05
0.296946
-1.20962e-05
0.296949
-1.00898e-05
0.29695
-8.4128e-06
0.296952
-7.00755e-06
0.296953
-5.83588e-06
0.296955
-4.85477e-06
0.296956
-4.04157e-06
0.296956
-3.35803e-06
0.296957
-2.78915e-06
0.296958
-2.30901e-06
0.296958
-1.91376e-06
0.296959
-1.58267e-06
0.296959
-1.31333e-06
0.296959
-1.08589e-06
0.29696
-8.99029e-07
0.29696
-7.39433e-07
0.29696
-6.08306e-07
0.29696
-4.92018e-07
0.29696
-3.97073e-07
0.29696
-3.14612e-07
0.296961
-2.4847e-07
0.296961
-1.88826e-07
0.296961
-1.41325e-07
0.296961
-9.74192e-08
0.296961
-6.27757e-08
0.296961
-2.95063e-08
0.296961
-3.62768e-09
0.296961
2.21681e-08
0.296961
4.14983e-08
0.296961
6.10476e-08
0.296961
7.41531e-08
0.296961
8.71375e-08
0.296962
9.33678e-08
0.296962
9.92667e-08
0.296962
9.84407e-08
0.296962
9.75307e-08
0.296962
9.04564e-08
0.296962
8.40685e-08
0.296962
7.2544e-08
0.296962
6.2838e-08
0.296962
4.91503e-08
0.296962
3.77551e-08
0.296962
2.25703e-08
7.97213e-09
0.298847
-0.0217597
-0.305361
0.295685
-0.0177996
0.294406
-0.0138215
0.294077
-0.0105173
0.29418
-0.00797354
0.294454
-0.00607369
0.294775
-0.0046663
0.295089
-0.00362069
0.295374
-0.00283752
0.295622
-0.00224472
0.295836
-0.00179102
0.296016
-0.00143992
0.296168
-0.0011654
0.296296
-0.000948626
0.296403
-0.000775976
0.296493
-0.000637415
0.296568
-0.000525476
0.296631
-0.000434529
0.296683
-0.000360273
0.296728
-0.000299333
0.296765
-0.000249116
0.296796
-0.000207625
0.296822
-0.000173284
0.296844
-0.000144774
0.296862
-0.000121045
0.296878
-0.000101266
0.296891
-8.47627e-05
0.296902
-7.09775e-05
0.296911
-5.9465e-05
0.296918
-4.98268e-05
0.296925
-4.17494e-05
0.29693
-3.49747e-05
0.296935
-2.92964e-05
0.296939
-2.45303e-05
0.296942
-2.05373e-05
0.296945
-1.71913e-05
0.296948
-1.43853e-05
0.29695
-1.20232e-05
0.296951
-1.00433e-05
0.296953
-8.3827e-06
0.296954
-6.99431e-06
0.296955
-5.83149e-06
0.296956
-4.86197e-06
0.296957
-4.0493e-06
0.296957
-3.37125e-06
0.296958
-2.80222e-06
0.296958
-2.3296e-06
0.296959
-1.93448e-06
0.296959
-1.60808e-06
0.296959
-1.33438e-06
0.29696
-1.10737e-06
0.29696
-9.1557e-07
0.29696
-7.55945e-07
0.29696
-6.18872e-07
0.29696
-5.0476e-07
0.296961
-4.07165e-07
0.296961
-3.2653e-07
0.296961
-2.56538e-07
0.296961
-1.98679e-07
0.296961
-1.47687e-07
0.296961
-1.05536e-07
0.296961
-6.75974e-08
0.296961
-3.63178e-08
0.296961
-7.65521e-09
0.296961
1.54979e-08
0.296961
3.66559e-08
0.296961
5.26023e-08
0.296961
6.65649e-08
0.296962
7.52735e-08
0.296962
8.20029e-08
0.296962
8.36427e-08
0.296962
8.36443e-08
0.296962
7.91226e-08
0.296962
7.37028e-08
0.296962
6.469e-08
0.296962
5.57964e-08
0.296962
4.42962e-08
0.296962
3.33878e-08
0.296962
2.02436e-08
6.9478e-09
0.301182
-0.0165076
-0.306433
0.298031
-0.0146469
0.296354
-0.0121448
0.295576
-0.00973981
0.2953
-0.00769754
0.295283
-0.00605819
0.295391
-0.00477528
0.295551
-0.00378081
0.295723
-0.0030107
0.29589
-0.00241219
0.296043
-0.00194429
0.296178
-0.00157597
0.296296
-0.00128394
0.296398
-0.00105074
0.296485
-0.000863294
0.296559
-0.000711713
0.296622
-0.000588482
0.296675
-0.000487826
0.296719
-0.000405266
0.296757
-0.000337283
0.296789
-0.00028112
0.296816
-0.000234603
0.296839
-0.000196001
0.296858
-0.000163895
0.296874
-0.000137145
0.296887
-0.000114822
0.296899
-9.61766e-05
0.296908
-8.0588e-05
0.296916
-6.75491e-05
0.296923
-5.66283e-05
0.296929
-4.74755e-05
0.296934
-3.9798e-05
0.296938
-3.3359e-05
0.296941
-2.79549e-05
0.296944
-2.34231e-05
0.296947
-1.96208e-05
0.296949
-1.64307e-05
0.296951
-1.37499e-05
0.296952
-1.1501e-05
0.296954
-9.6136e-06
0.296955
-8.03311e-06
0.296956
-6.70846e-06
0.296956
-5.60121e-06
0.296957
-4.67348e-06
0.296958
-3.8984e-06
0.296958
-3.24883e-06
0.296959
-2.70738e-06
0.296959
-2.25449e-06
0.296959
-1.878e-06
0.29696
-1.56267e-06
0.29696
-1.30013e-06
0.29696
-1.07908e-06
0.29696
-8.94389e-07
0.29696
-7.37574e-07
0.29696
-6.06364e-07
0.296961
-4.94736e-07
0.296961
-4.01525e-07
0.296961
-3.21609e-07
0.296961
-2.54763e-07
0.296961
-1.96819e-07
0.296961
-1.48226e-07
0.296961
-1.05499e-07
0.296961
-6.96421e-08
0.296961
-3.77802e-08
0.296961
-1.14046e-08
0.296961
1.18642e-08
0.296961
3.01921e-08
0.296961
4.56945e-08
0.296962
5.64405e-08
0.296962
6.45464e-08
0.296962
6.81817e-08
0.296962
6.95963e-08
0.296962
6.71254e-08
0.296962
6.31565e-08
0.296962
5.61691e-08
0.296962
4.8616e-08
0.296962
3.89216e-08
0.296962
2.91383e-08
0.296962
1.77611e-08
6.03758e-09
0.302279
-0.0125328
-0.306253
0.299506
-0.0118719
0.297772
-0.0104109
0.296781
-0.00874825
0.296266
-0.00718385
0.29604
-0.00583235
0.295978
-0.004714
0.296005
-0.00380847
0.296076
-0.00308254
0.296166
-0.00250249
0.29626
-0.00203873
0.29635
-0.00166692
0.296434
-0.00136767
0.296508
-0.00112577
0.296574
-0.000929361
0.296632
-0.000769202
0.296681
-0.000638092
0.296723
-0.000530376
0.296759
-0.000441595
0.29679
-0.000368203
0.296817
-0.00030738
0.296839
-0.000256865
0.296858
-0.00021484
0.296873
-0.00017982
0.296887
-0.000150595
0.296898
-0.000126177
0.296908
-0.000105758
0.296916
-8.86684e-05
0.296923
-7.43584e-05
0.296929
-6.23657e-05
0.296934
-5.23096e-05
0.296938
-4.38725e-05
0.296941
-3.67929e-05
0.296944
-3.08503e-05
0.296947
-2.58633e-05
0.296949
-2.16771e-05
0.296951
-1.81631e-05
0.296952
-1.52118e-05
0.296953
-1.27345e-05
0.296954
-1.06553e-05
0.296955
-8.91217e-06
0.296956
-7.4507e-06
0.296957
-6.22707e-06
0.296958
-5.20197e-06
0.296958
-4.34434e-06
0.296958
-3.62614e-06
0.296959
-3.02606e-06
0.296959
-2.5241e-06
0.296959
-2.10524e-06
0.29696
-1.75472e-06
0.29696
-1.46197e-06
0.29696
-1.21616e-06
0.29696
-1.01021e-06
0.29696
-8.3647e-07
0.296961
-6.90577e-07
0.296961
-5.67147e-07
0.296961
-4.63387e-07
0.296961
-3.75186e-07
0.296961
-3.00818e-07
0.296961
-2.3714e-07
0.296961
-1.83211e-07
0.296961
-1.36613e-07
0.296961
-9.70312e-08
0.296961
-6.26609e-08
0.296961
-3.37072e-08
0.296961
-8.84075e-09
0.296961
1.13782e-08
0.296961
2.80211e-08
0.296962
4.03973e-08
0.296962
4.95431e-08
0.296962
5.48182e-08
0.296962
5.73493e-08
0.296962
5.66126e-08
0.296962
5.38408e-08
0.296962
4.86123e-08
0.296962
4.2202e-08
0.296962
3.41228e-08
0.296962
2.54089e-08
0.296962
1.55801e-08
5.27628e-09
0.302669
-0.00958855
-0.305612
0.300367
-0.00956925
0.298752
-0.00879553
0.297703
-0.00769872
0.297063
-0.00654444
0.296699
-0.00546895
0.296512
-0.00452722
0.296433
-0.00373026
0.296418
-0.00306843
0.296439
-0.00252431
0.296479
-0.00207904
0.296527
-0.00171518
0.296576
-0.0014177
0.296624
-0.00117409
0.296669
-0.000974158
0.296709
-0.000809666
0.296744
-0.000674003
0.296776
-0.000561851
0.296803
-0.000468932
0.296826
-0.00039179
0.296846
-0.000327632
0.296863
-0.000274188
0.296878
-0.00022961
0.296891
-0.000192382
0.296901
-0.000161261
0.29691
-0.000135221