/*--------------------------------*- C++ -*----------------------------------*\
  =========                 |
  \\      /  F ield         | OpenFOAM: The Open Source CFD Toolbox
   \\    /   O peration     | Website:  https://openfoam.org
    \\  /    A nd           | Version:  10
     \\/     M anipulation  |
\*---------------------------------------------------------------------------*/
FoamFile
{
    format      ascii;
    class       volVectorField;
    location    "0";
    object      UA;
}
// * * * * * * * * * * * * * * * * * * * * * * * * * * * * * * * * * * * * * //

dimensions      [0 1 -1 0 0 0 0];

internalField   nonuniform List<vector> 
7600
(
(1.06451 -0.818743 0)
(1.0462 -0.58646 0)
(1.0347 -0.440566 0)
(1.02701 -0.34301 0)
(1.02162 -0.274587 0)
(1.01769 -0.22476 0)
(1.01475 -0.187356 0)
(1.01248 -0.158564 0)
(1.0107 -0.135931 0)
(1.00927 -0.117819 0)
(1.19183 -0.798161 0)
(1.13739 -0.571791 0)
(1.1032 -0.429586 0)
(1.08034 -0.334486 0)
(1.06431 -0.267779 0)
(1.05264 -0.219197 0)
(1.04388 -0.182725 0)
(1.03713 -0.15465 0)
(1.03183 -0.13258 0)
(1.02759 -0.114916 0)
(1.31426 -0.75792 0)
(1.22511 -0.543039 0)
(1.16911 -0.408027 0)
(1.13167 -0.317724 0)
(1.1054 -0.254376 0)
(1.08628 -0.208236 0)
(1.07192 -0.173595 0)
(1.06087 -0.146928 0)
(1.05218 -0.125964 0)
(1.04523 -0.109185 0)
(1.4288 -0.699048 0)
(1.3072 -0.500932 0)
(1.23081 -0.376431 0)
(1.17972 -0.293145 0)
(1.14388 -0.234713 0)
(1.11778 -0.19215 0)
(1.09818 -0.160192 0)
(1.0831 -0.135589 0)
(1.07124 -0.116246 0)
(1.06175 -0.100764 0)
(1.53264 -0.623031 0)
(1.38165 -0.446528 0)
(1.28678 -0.335586 0)
(1.22332 -0.26136 0)
(1.1788 -0.209278 0)
(1.14637 -0.171337 0)
(1.12202 -0.142848 0)
(1.10328 -0.120913 0)
(1.08855 -0.103667 0)
(1.07675 -0.089863 0)
(1.62323 -0.531772 0)
(1.44664 -0.381183 0)
(1.33565 -0.286509 0)
(1.2614 -0.223158 0)
(1.2093 -0.178701 0)
(1.17135 -0.146312 0)
(1.14286 -0.121989 0)
(1.12092 -0.103262 0)
(1.10367 -0.0885363 0)
(1.08986 -0.0767493 0)
(1.69838 -0.427544 0)
(1.50057 -0.30652 0)
(1.37622 -0.230417 0)
(1.29302 -0.179485 0)
(1.23464 -0.143738 0)
(1.1921 -0.117693 0)
(1.16017 -0.0981325 0)
(1.13557 -0.0830706 0)
(1.11624 -0.0712269 0)
(1.10076 -0.0617462 0)
(1.75627 -0.312935 0)
(1.54214 -0.224388 0)
(1.40751 -0.168696 0)
(1.31742 -0.131419 0)
(1.25419 -0.105253 0)
(1.20812 -0.0861858 0)
(1.17353 -0.0718651 0)
(1.14689 -0.0608372 0)
(1.12595 -0.0521652 0)
(1.10918 -0.045223 0)
(1.7955 -0.190776 0)
(1.57035 -0.136816 0)
(1.42876 -0.102871 0)
(1.33399 -0.0801459 0)
(1.26748 -0.0641929 0)
(1.21902 -0.0525671 0)
(1.18262 -0.0438345 0)
(1.15459 -0.0371094 0)
(1.13255 -0.0318207 0)
(1.11491 -0.0275868 0)
(1.81515 -0.0640794 0)
(1.58451 -0.0459617 0)
(1.43945 -0.0345621 0)
(1.34234 -0.0269294 0)
(1.27418 -0.0215705 0)
(1.22451 -0.0176649 0)
(1.18721 -0.014731 0)
(1.15848 -0.0124715 0)
(1.13589 -0.0106944 0)
(1.11781 -0.00927172 0)
(0.184848 -0.0640794 0)
(0.41549 -0.0459617 0)
(0.560555 -0.0345621 0)
(0.657658 -0.0269294 0)
(0.725817 -0.0215705 0)
(0.775485 -0.0176649 0)
(0.81279 -0.014731 0)
(0.841517 -0.0124715 0)
(0.864107 -0.0106944 0)
(0.882192 -0.00927172 0)
(0.2045 -0.190776 0)
(0.429655 -0.136816 0)
(0.571245 -0.102871 0)
(0.66601 -0.0801459 0)
(0.732521 -0.0641929 0)
(0.780985 -0.0525671 0)
(0.817383 -0.0438345 0)
(0.84541 -0.0371094 0)
(0.867449 -0.0318207 0)
(0.885091 -0.0275868 0)
(0.243734 -0.312935 0)
(0.45786 -0.224388 0)
(0.59249 -0.168696 0)
(0.682584 -0.131419 0)
(0.745811 -0.105253 0)
(0.791877 -0.0861858 0)
(0.826472 -0.0718651 0)
(0.853109 -0.0608372 0)
(0.874054 -0.0521652 0)
(0.89082 -0.045223 0)
(0.301621 -0.427544 0)
(0.499431 -0.30652 0)
(0.623779 -0.230417 0)
(0.70698 -0.179485 0)
(0.765363 -0.143738 0)
(0.807896 -0.117693 0)
(0.839835 -0.0981325 0)
(0.864426 -0.0830706 0)
(0.883761 -0.0712269 0)
(0.899238 -0.0617462 0)
(0.37677 -0.531772 0)
(0.553364 -0.381183 0)
(0.664352 -0.286509 0)
(0.738603 -0.223158 0)
(0.7907 -0.178701 0)
(0.82865 -0.146312 0)
(0.857145 -0.121989 0)
(0.879083 -0.103262 0)
(0.896331 -0.0885363 0)
(0.910137 -0.0767493 0)
(0.467364 -0.623031 0)
(0.618348 -0.446528 0)
(0.713221 -0.335586 0)
(0.776682 -0.26136 0)
(0.821202 -0.209278 0)
(0.853629 -0.171337 0)
(0.877976 -0.142848 0)
(0.896719 -0.120913 0)
(0.911455 -0.103667 0)
(0.923249 -0.089863 0)
(0.571199 -0.699048 0)
(0.692798 -0.500932 0)
(0.769191 -0.376431 0)
(0.820282 -0.293145 0)
(0.85612 -0.234713 0)
(0.882222 -0.19215 0)
(0.901817 -0.160192 0)
(0.916902 -0.135589 0)
(0.92876 -0.116246 0)
(0.938251 -0.100764 0)
(0.685737 -0.75792 0)
(0.774892 -0.543039 0)
(0.83089 -0.408027 0)
(0.868335 -0.317724 0)
(0.894598 -0.254376 0)
(0.913724 -0.208236 0)
(0.928082 -0.173595 0)
(0.939133 -0.146928 0)
(0.947821 -0.125964 0)
(0.954774 -0.109185 0)
(0.808171 -0.798161 0)
(0.862613 -0.571791 0)
(0.896801 -0.429586 0)
(0.919659 -0.334486 0)
(0.935689 -0.267779 0)
(0.947362 -0.219197 0)
(0.956123 -0.182725 0)
(0.962867 -0.15465 0)
(0.968168 -0.13258 0)
(0.972411 -0.114916 0)
(0.935489 -0.818743 0)
(0.953804 -0.58646 0)
(0.965304 -0.440566 0)
(0.972991 -0.34301 0)
(0.978381 -0.274587 0)
(0.982306 -0.22476 0)
(0.985252 -0.187356 0)
(0.987519 -0.158564 0)
(0.989301 -0.135931 0)
(0.990727 -0.117819 0)
(0.913214 -0.00605354 0)
(0.942175 -0.00328494 0)
(0.958738 -0.00197643 0)
(0.969087 -0.00127962 0)
(0.975981 -0.000875119 0)
(0.980802 -0.000624454 0)
(0.984305 -0.000460954 0)
(0.98693 -0.000349817 0)
(0.988948 -0.000271663 0)
(0.990532 -0.000215118 0)
(0.991799 -0.000173207 0)
(0.992827 -0.000141489 0)
(0.993674 -0.000117048 0)
(0.994379 -9.79125e-05 0)
(0.994972 -8.27194e-05 0)
(0.995476 -7.05046e-05 0)
(0.995908 -6.05734e-05 0)
(0.996281 -5.24169e-05 0)
(0.996605 -4.56563e-05 0)
(0.996889 -4.00056e-05 0)
(0.997138 -3.52465e-05 0)
(0.997359 -3.12101e-05 0)
(0.997555 -2.77645e-05 0)
(0.99773 -2.48057e-05 0)
(0.997887 -2.22507e-05 0)
(0.998028 -2.00331e-05 0)
(0.998156 -1.80991e-05 0)
(0.998271 -1.64049e-05 0)
(0.998376 -1.49146e-05 0)
(0.998472 -1.35983e-05 0)
(0.998559 -1.24315e-05 0)
(0.998639 -1.13937e-05 0)
(0.998713 -1.04674e-05 0)
(0.998781 -9.63825e-06 0)
(0.998844 -8.89377e-06 0)
(0.998901 -8.22348e-06 0)
(0.998955 -7.61838e-06 0)
(0.999005 -7.07076e-06 0)
(0.999051 -6.57398e-06 0)
(0.999095 -6.12229e-06 0)
(0.999135 -5.7107e-06 0)
(0.999172 -5.33488e-06 0)
(0.999208 -4.99103e-06 0)
(0.999241 -4.67585e-06 0)
(0.999272 -4.3864e-06 0)
(0.999301 -4.12014e-06 0)
(0.999328 -3.87478e-06 0)
(0.999354 -3.64834e-06 0)
(0.999379 -3.43902e-06 0)
(0.999402 -3.24524e-06 0)
(0.999424 -3.0656e-06 0)
(0.999444 -2.89883e-06 0)
(0.999464 -2.74381e-06 0)
(0.999482 -2.59952e-06 0)
(0.9995 -2.46506e-06 0)
(0.999516 -2.3396e-06 0)
(0.999532 -2.22241e-06 0)
(0.999547 -2.11283e-06 0)
(0.999562 -2.01024e-06 0)
(0.999576 -1.9141e-06 0)
(0.999589 -1.82392e-06 0)
(0.999601 -1.73924e-06 0)
(0.999613 -1.65965e-06 0)
(0.999624 -1.58477e-06 0)
(0.999635 -1.51427e-06 0)
(0.999646 -1.44783e-06 0)
(0.999656 -1.38517e-06 0)
(0.999665 -1.32602e-06 0)
(0.999674 -1.27014e-06 0)
(0.999683 -1.2173e-06 0)
(0.999692 -1.16732e-06 0)
(0.9997 -1.11998e-06 0)
(0.999708 -1.07514e-06 0)
(0.999715 -1.03261e-06 0)
(0.999722 -9.92268e-07 0)
(0.999729 -9.53961e-07 0)
(0.999736 -9.17568e-07 0)
(0.999742 -8.82971e-07 0)
(0.999749 -8.50061e-07 0)
(0.999755 -8.18738e-07 0)
(0.914795 -0.0180674 0)
(0.942786 -0.00983743 0)
(0.959005 -0.00592808 0)
(0.969212 -0.00384093 0)
(0.976041 -0.00262769 0)
(0.980832 -0.00187529 0)
(0.984319 -0.00138432 0)
(0.986936 -0.00105052 0)
(0.988949 -0.000815769 0)
(0.990531 -0.000645918 0)
(0.991797 -0.000520028 0)
(0.992825 -0.000424761 0)
(0.993671 -0.000351355 0)
(0.994376 -0.000293889 0)
(0.994969 -0.000248266 0)
(0.995474 -0.000211589 0)
(0.995906 -0.000181772 0)
(0.996279 -0.000157284 0)
(0.996603 -0.000136989 0)
(0.996887 -0.000120028 0)
(0.997137 -0.000105743 0)
(0.997358 -9.36291e-05 0)
(0.997554 -8.32886e-05 0)
(0.997729 -7.44094e-05 0)
(0.997886 -6.67427e-05 0)
(0.998027 -6.00887e-05 0)
(0.998155 -5.42861e-05 0)
(0.99827 -4.92031e-05 0)
(0.998375 -4.47317e-05 0)
(0.998471 -4.0783e-05 0)
(0.998559 -3.72829e-05 0)
(0.998639 -3.41696e-05 0)
(0.998713 -3.13913e-05 0)
(0.99878 -2.89041e-05 0)
(0.998843 -2.66711e-05 0)
(0.998901 -2.46607e-05 0)
(0.998955 -2.28458e-05 0)
(0.999005 -2.12035e-05 0)
(0.999051 -1.97136e-05 0)
(0.999094 -1.8359e-05 0)
(0.999135 -1.71246e-05 0)
(0.999172 -1.59976e-05 0)
(0.999208 -1.49665e-05 0)
(0.999241 -1.40213e-05 0)
(0.999272 -1.31534e-05 0)
(0.999301 -1.23549e-05 0)
(0.999328 -1.16192e-05 0)
(0.999354 -1.09402e-05 0)
(0.999379 -1.03125e-05 0)
(0.999402 -9.7315e-06 0)
(0.999423 -9.19285e-06 0)
(0.999444 -8.69281e-06 0)
(0.999464 -8.22799e-06 0)
(0.999482 -7.79536e-06 0)
(0.9995 -7.39219e-06 0)
(0.999516 -7.01603e-06 0)
(0.999532 -6.66467e-06 0)
(0.999547 -6.33609e-06 0)
(0.999562 -6.0285e-06 0)
(0.999575 -5.74025e-06 0)
(0.999589 -5.46986e-06 0)
(0.999601 -5.21596e-06 0)
(0.999613 -4.97733e-06 0)
(0.999624 -4.75285e-06 0)
(0.999635 -4.54147e-06 0)
(0.999646 -4.34228e-06 0)
(0.999656 -4.15439e-06 0)
(0.999665 -3.97704e-06 0)
(0.999674 -3.8095e-06 0)
(0.999683 -3.65109e-06 0)
(0.999692 -3.50121e-06 0)
(0.9997 -3.3593e-06 0)
(0.999708 -3.22484e-06 0)
(0.999715 -3.09735e-06 0)
(0.999722 -2.97638e-06 0)
(0.999729 -2.86152e-06 0)
(0.999736 -2.7524e-06 0)
(0.999742 -2.64867e-06 0)
(0.999749 -2.55e-06 0)
(0.999755 -2.45608e-06 0)
(0.91794 -0.0298022 0)
(0.944012 -0.0163374 0)
(0.95954 -0.00987596 0)
(0.969463 -0.00640847 0)
(0.976164 -0.00438727 0)
(0.980892 -0.00313192 0)
(0.984348 -0.00231209 0)
(0.986948 -0.00175446 0)
(0.988952 -0.00136222 0)
(0.99053 -0.00107842 0)
(0.991793 -0.000868076 0)
(0.992819 -0.000708918 0)
(0.993665 -0.000586299 0)
(0.99437 -0.000490321 0)
(0.994964 -0.000414135 0)
(0.995469 -0.000352898 0)
(0.995901 -0.000303123 0)
(0.996275 -0.000262252 0)
(0.996599 -0.000228384 0)
(0.996884 -0.000200082 0)
(0.997133 -0.000176251 0)
(0.997355 -0.000156044 0)
(0.997551 -0.000138797 0)
(0.997726 -0.00012399 0)
(0.997884 -0.000111206 0)
(0.998025 -0.000100112 0)
(0.998153 -9.04385e-05 0)
(0.998269 -8.19655e-05 0)
(0.998374 -7.45129e-05 0)
(0.99847 -6.79319e-05 0)
(0.998557 -6.2099e-05 0)
(0.998638 -5.69111e-05 0)
(0.998712 -5.22818e-05 0)
(0.99878 -4.81379e-05 0)
(0.998842 -4.44177e-05 0)
(0.9989 -4.10685e-05 0)
(0.998954 -3.80454e-05 0)
(0.999004 -3.53097e-05 0)
(0.99905 -3.28281e-05 0)
(0.999094 -3.05719e-05 0)
(0.999134 -2.85162e-05 0)
(0.999172 -2.66392e-05 0)
(0.999207 -2.4922e-05 0)
(0.99924 -2.33481e-05 0)
(0.999271 -2.19027e-05 0)
(0.999301 -2.05732e-05 0)
(0.999328 -1.93481e-05 0)
(0.999354 -1.82175e-05 0)
(0.999378 -1.71725e-05 0)
(0.999401 -1.62051e-05 0)
(0.999423 -1.53082e-05 0)
(0.999444 -1.44757e-05 0)
(0.999463 -1.37019e-05 0)
(0.999482 -1.29816e-05 0)
(0.9995 -1.23104e-05 0)
(0.999516 -1.16841e-05 0)
(0.999532 -1.10992e-05 0)
(0.999547 -1.05522e-05 0)
(0.999562 -1.00401e-05 0)
(0.999575 -9.56027e-06 0)
(0.999588 -9.11013e-06 0)
(0.999601 -8.68747e-06 0)
(0.999613 -8.29022e-06 0)
(0.999624 -7.91651e-06 0)
(0.999635 -7.56464e-06 0)
(0.999646 -7.23303e-06 0)
(0.999656 -6.92027e-06 0)
(0.999665 -6.62503e-06 0)
(0.999674 -6.34612e-06 0)
(0.999683 -6.08242e-06 0)
(0.999692 -5.83292e-06 0)
(0.9997 -5.59668e-06 0)
(0.999708 -5.37283e-06 0)
(0.999715 -5.16059e-06 0)
(0.999722 -4.95921e-06 0)
(0.999729 -4.768e-06 0)
(0.999736 -4.58635e-06 0)
(0.999742 -4.41366e-06 0)
(0.999749 -4.24938e-06 0)
(0.999755 -4.09303e-06 0)
(0.922612 -0.0410733 0)
(0.945853 -0.0227488 0)
(0.960347 -0.0138173 0)
(0.969842 -0.00898644 0)
(0.976349 -0.00615866 0)
(0.980982 -0.00439831 0)
(0.98439 -0.00324725 0)
(0.986965 -0.00246384 0)
(0.988957 -0.00191262 0)
(0.990527 -0.00151377 0)
(0.991786 -0.00121818 0)
(0.992811 -0.000994554 0)
(0.993657 -0.000822303 0)
(0.994362 -0.000687509 0)
(0.994956 -0.000580538 0)
(0.995461 -0.00049458 0)
(0.995894 -0.000424727 0)
(0.996268 -0.000367384 0)
(0.996593 -0.000319877 0)
(0.996878 -0.000280188 0)
(0.997129 -0.000246776 0)
(0.99735 -0.000218449 0)
(0.997547 -0.000194279 0)
(0.997723 -0.00017353 0)
(0.99788 -0.00015562 0)
(0.998022 -0.00014008 0)
(0.99815 -0.000126532 0)
(0.998266 -0.000114668 0)
(0.998372 -0.000104233 0)
(0.998468 -9.50201e-05 0)
(0.998556 -8.68556e-05 0)
(0.998636 -7.95947e-05 0)
(0.99871 -7.31162e-05 0)
(0.998778 -6.73178e-05 0)
(0.998841 -6.21127e-05 0)
(0.998899 -5.74272e-05 0)
(0.998953 -5.31981e-05 0)
(0.999003 -4.93714e-05 0)
(0.99905 -4.59005e-05 0)
(0.999093 -4.27451e-05 0)
(0.999133 -3.98702e-05 0)
(0.999171 -3.72454e-05 0)
(0.999207 -3.48443e-05 0)
(0.99924 -3.26435e-05 0)
(0.999271 -3.06227e-05 0)
(0.9993 -2.87639e-05 0)
(0.999328 -2.70512e-05 0)
(0.999354 -2.54707e-05 0)
(0.999378 -2.40098e-05 0)
(0.999401 -2.26575e-05 0)
(0.999423 -2.14039e-05 0)
(0.999444 -2.02402e-05 0)
(0.999463 -1.91585e-05 0)
(0.999482 -1.81518e-05 0)
(0.999499 -1.72136e-05 0)
(0.999516 -1.63384e-05 0)
(0.999532 -1.55208e-05 0)
(0.999547 -1.47563e-05 0)
(0.999562 -1.40407e-05 0)
(0.999575 -1.33701e-05 0)
(0.999588 -1.2741e-05 0)
(0.999601 -1.21503e-05 0)
(0.999613 -1.15951e-05 0)
(0.999624 -1.10728e-05 0)
(0.999635 -1.05811e-05 0)
(0.999646 -1.01177e-05 0)
(0.999656 -9.68057e-06 0)
(0.999665 -9.26797e-06 0)
(0.999674 -8.87818e-06 0)
(0.999683 -8.50966e-06 0)
(0.999692 -8.16097e-06 0)
(0.9997 -7.83082e-06 0)
(0.999708 -7.51798e-06 0)
(0.999715 -7.22136e-06 0)
(0.999722 -6.93991e-06 0)
(0.999729 -6.67268e-06 0)
(0.999736 -6.4188e-06 0)
(0.999743 -6.17744e-06 0)
(0.999749 -5.94785e-06 0)
(0.999755 -5.72932e-06 0)
(0.928759 -0.0516983 0)
(0.948315 -0.0290338 0)
(0.961434 -0.0177489 0)
(0.970353 -0.0115791 0)
(0.976598 -0.00794684 0)
(0.981104 -0.0056786 0)
(0.984447 -0.00419294 0)
(0.986989 -0.00318092 0)
(0.988962 -0.0024686 0)
(0.990523 -0.00195314 0)
(0.991777 -0.00157117 0)
(0.9928 -0.00128227 0)
(0.993645 -0.00105979 0)
(0.99435 -0.000885756 0)
(0.994945 -0.000747687 0)
(0.995451 -0.000636777 0)
(0.995884 -0.000546678 0)
(0.996259 -0.00047274 0)
(0.996585 -0.000411504 0)
(0.996871 -0.000360361 0)
(0.997122 -0.000317319 0)
(0.997344 -0.000280838 0)
(0.997542 -0.000249718 0)
(0.997718 -0.000223011 0)
(0.997876 -0.000199962 0)
(0.998018 -0.000179969 0)
(0.998147 -0.000162542 0)
(0.998263 -0.000147283 0)
(0.998369 -0.000133866 0)
(0.998465 -0.000122022 0)
(0.998553 -0.000111527 0)
(0.998634 -0.000102196 0)
(0.998708 -9.38713e-05 0)
(0.998776 -8.64214e-05 0)
(0.998839 -7.97347e-05 0)
(0.998898 -7.37162e-05 0)
(0.998952 -6.82847e-05 0)
(0.999002 -6.33705e-05 0)
(0.999048 -5.89136e-05 0)
(0.999092 -5.48622e-05 0)
(0.999132 -5.11714e-05 0)
(0.99917 -4.78019e-05 0)
(0.999206 -4.47198e-05 0)
(0.999239 -4.1895e-05 0)
(0.99927 -3.93014e-05 0)
(0.999299 -3.69159e-05 0)
(0.999327 -3.47181e-05 0)
(0.999353 -3.26899e-05 0)
(0.999378 -3.08153e-05 0)
(0.999401 -2.90802e-05 0)
(0.999423 -2.74718e-05 0)
(0.999443 -2.59788e-05 0)
(0.999463 -2.4591e-05 0)
(0.999482 -2.32995e-05 0)
(0.999499 -2.2096e-05 0)
(0.999516 -2.09732e-05 0)
(0.999532 -1.99245e-05 0)
(0.999547 -1.89438e-05 0)
(0.999561 -1.80258e-05 0)
(0.999575 -1.71656e-05 0)
(0.999588 -1.63586e-05 0)
(0.999601 -1.56009e-05 0)
(0.999613 -1.48888e-05 0)
(0.999624 -1.42189e-05 0)
(0.999635 -1.35882e-05 0)
(0.999646 -1.29937e-05 0)
(0.999656 -1.24331e-05 0)
(0.999665 -1.19039e-05 0)
(0.999674 -1.14039e-05 0)
(0.999683 -1.09312e-05 0)
(0.999692 -1.04839e-05 0)
(0.9997 -1.00604e-05 0)
(0.999708 -9.65916e-06 0)
(0.999715 -9.27867e-06 0)
(0.999722 -8.91764e-06 0)
(0.999729 -8.57486e-06 0)
(0.999736 -8.24918e-06 0)
(0.999743 -7.93956e-06 0)
(0.999749 -7.64503e-06 0)
(0.999755 -7.36469e-06 0)
(0.936307 -0.0614983 0)
(0.951404 -0.0351523 0)
(0.962809 -0.021667 0)
(0.971001 -0.0141909 0)
(0.976913 -0.00975703 0)
(0.981257 -0.00697712 0)
(0.984519 -0.00515241 0)
(0.987017 -0.0039081 0)
(0.988968 -0.00303187 0)
(0.990517 -0.00239774 0)
(0.991766 -0.00192792 0)
(0.992786 -0.00157267 0)
(0.99363 -0.0012992 0)
(0.994335 -0.00108536 0)
(0.99493 -0.000915785 0)
(0.995437 -0.000779627 0)
(0.995872 -0.000669066 0)
(0.996248 -0.000578374 0)
(0.996575 -0.000503292 0)
(0.996862 -0.00044061 0)
(0.997114 -0.000387876 0)
(0.997337 -0.000343198 0)
(0.997535 -0.000305096 0)
(0.997712 -0.000272408 0)
(0.99787 -0.000244207 0)
(0.998013 -0.000219751 0)
(0.998142 -0.000198439 0)
(0.998259 -0.000179784 0)
(0.998365 -0.000163384 0)
(0.998462 -0.00014891 0)
(0.99855 -0.000136088 0)
(0.998631 -0.00012469 0)
(0.998705 -0.000114522 0)
(0.998774 -0.000105425 0)
(0.998837 -9.72616e-05 0)
(0.998896 -8.99147e-05 0)
(0.99895 -8.32853e-05 0)
(0.999 -7.72882e-05 0)
(0.999047 -7.18498e-05 0)
(0.999091 -6.69068e-05 0)
(0.999131 -6.24041e-05 0)
(0.999169 -5.8294e-05 0)
(0.999205 -5.45347e-05 0)
(0.999238 -5.10897e-05 0)
(0.999269 -4.79269e-05 0)
(0.999299 -4.5018e-05 0)
(0.999326 -4.23381e-05 0)
(0.999352 -3.98653e-05 0)
(0.999377 -3.75799e-05 0)
(0.9994 -3.54647e-05 0)
(0.999422 -3.3504e-05 0)
(0.999443 -3.16841e-05 0)
(0.999463 -2.99926e-05 0)
(0.999481 -2.84184e-05 0)
(0.999499 -2.69515e-05 0)
(0.999516 -2.55831e-05 0)
(0.999532 -2.43049e-05 0)
(0.999547 -2.31098e-05 0)
(0.999561 -2.1991e-05 0)
(0.999575 -2.09427e-05 0)
(0.999588 -1.99593e-05 0)
(0.999601 -1.9036e-05 0)
(0.999613 -1.81682e-05 0)
(0.999624 -1.73519e-05 0)
(0.999635 -1.65832e-05 0)
(0.999646 -1.58589e-05 0)
(0.999656 -1.51757e-05 0)
(0.999665 -1.45307e-05 0)
(0.999674 -1.39215e-05 0)
(0.999683 -1.33454e-05 0)
(0.999692 -1.28004e-05 0)
(0.9997 -1.22843e-05 0)
(0.999708 -1.17953e-05 0)
(0.999715 -1.13316e-05 0)
(0.999722 -1.08916e-05 0)
(0.999729 -1.04738e-05 0)
(0.999736 -1.00769e-05 0)
(0.999743 -9.69955e-06 0)
(0.999749 -9.34057e-06 0)
(0.999755 -8.99888e-06 0)
(0.945165 -0.0702987 0)
(0.955126 -0.0410611 0)
(0.964482 -0.025567 0)
(0.971793 -0.0168264 0)
(0.977297 -0.0115948 0)
(0.981444 -0.00829851 0)
(0.984605 -0.00612915 0)
(0.987051 -0.00464787 0)
(0.988975 -0.0036042 0)
(0.99051 -0.00284884 0)
(0.991751 -0.00228931 0)
(0.992769 -0.00186636 0)
(0.993611 -0.00154095 0)
(0.994317 -0.00128661 0)
(0.994913 -0.00108503 0)
(0.995421 -0.00092326 0)
(0.995857 -0.000791971 0)
(0.996234 -0.000684331 0)
(0.996563 -0.000595263 0)
(0.99685 -0.000520939 0)
(0.997103 -0.00045844 0)
(0.997327 -0.00040551 0)
(0.997526 -0.00036039 0)
(0.997704 -0.000321695 0)
(0.997864 -0.000288325 0)
(0.998007 -0.000259395 0)
(0.998136 -0.000234193 0)
(0.998254 -0.000212139 0)
(0.99836 -0.000192757 0)
(0.998457 -0.000175655 0)
(0.998546 -0.00016051 0)
(0.998628 -0.000147048 0)
(0.998702 -0.000135044 0)
(0.998771 -0.000124305 0)
(0.998835 -0.00011467 0)
(0.998893 -0.000106001 0)
(0.998948 -9.81794e-05 0)
(0.998998 -9.11051e-05 0)
(0.999045 -8.46908e-05 0)
(0.999089 -7.88616e-05 0)
(0.99913 -7.35525e-05 0)
(0.999168 -6.87068e-05 0)
(0.999204 -6.42752e-05 0)
(0.999237 -6.02145e-05 0)
(0.999268 -5.64867e-05 0)
(0.999298 -5.30587e-05 0)
(0.999326 -4.99008e-05 0)
(0.999352 -4.6987e-05 0)
(0.999376 -4.42944e-05 0)
(0.9994 -4.18023e-05 0)
(0.999422 -3.94925e-05 0)
(0.999442 -3.73487e-05 0)
(0.999462 -3.53562e-05 0)
(0.999481 -3.3502e-05 0)
(0.999499 -3.17743e-05 0)
(0.999515 -3.01625e-05 0)
(0.999531 -2.86572e-05 0)
(0.999547 -2.72496e-05 0)
(0.999561 -2.59321e-05 0)
(0.999575 -2.46975e-05 0)
(0.999588 -2.35394e-05 0)
(0.999601 -2.24521e-05 0)
(0.999613 -2.14301e-05 0)
(0.999624 -2.04688e-05 0)
(0.999635 -1.95636e-05 0)
(0.999646 -1.87106e-05 0)
(0.999656 -1.79061e-05 0)
(0.999665 -1.71466e-05 0)
(0.999674 -1.64291e-05 0)
(0.999683 -1.57507e-05 0)
(0.999692 -1.51089e-05 0)
(0.9997 -1.45011e-05 0)
(0.999708 -1.39252e-05 0)
(0.999715 -1.33791e-05 0)
(0.999723 -1.28609e-05 0)
(0.99973 -1.23689e-05 0)
(0.999736 -1.19014e-05 0)
(0.999743 -1.14569e-05 0)
(0.999749 -1.10341e-05 0)
(0.999755 -1.06316e-05 0)
(0.955222 -0.0779312 0)
(0.959489 -0.0467129 0)
(0.966469 -0.029443 0)
(0.972735 -0.0194903 0)
(0.977755 -0.0134662 0)
(0.981664 -0.0096478 0)
(0.984705 -0.00712692 0)
(0.98709 -0.00540292 0)
(0.988981 -0.00418748 0)
(0.990499 -0.00330774 0)
(0.991733 -0.00265623 0)
(0.992747 -0.00216399 0)
(0.993589 -0.00178546 0)
(0.994295 -0.0014898 0)
(0.994892 -0.00125561 0)
(0.995402 -0.00106779 0)
(0.995839 -0.000915463 0)
(0.996218 -0.000790647 0)
(0.996548 -0.000687427 0)
(0.996837 -0.000601342 0)
(0.997091 -0.000528991 0)
(0.997316 -0.000467749 0)
(0.997517 -0.000415569 0)
(0.997695 -0.000370839 0)
(0.997856 -0.00033228 0)
(0.998 -0.000298866 0)
(0.99813 -0.000269768 0)
(0.998248 -0.000244314 0)
(0.998355 -0.000221951 0)
(0.998453 -0.000202226 0)
(0.998542 -0.000184761 0)
(0.998624 -0.000169243 0)
(0.998699 -0.000155408 0)
(0.998768 -0.000143035 0)
(0.998832 -0.000131936 0)
(0.998891 -0.000121952 0)
(0.998945 -0.000112946 0)
(0.998996 -0.000104801 0)
(0.999043 -9.74179e-05 0)
(0.999087 -9.07093e-05 0)
(0.999128 -8.46001e-05 0)
(0.999166 -7.90249e-05 0)
(0.999202 -7.39268e-05 0)
(0.999236 -6.9256e-05 0)
(0.999267 -6.49687e-05 0)
(0.999297 -6.10264e-05 0)
(0.999325 -5.73952e-05 0)
(0.999351 -5.40451e-05 0)
(0.999376 -5.09494e-05 0)
(0.999399 -4.80845e-05 0)
(0.999421 -4.54293e-05 0)
(0.999442 -4.2965e-05 0)
(0.999462 -4.06749e-05 0)
(0.99948 -3.85438e-05 0)
(0.999498 -3.65582e-05 0)
(0.999515 -3.4706e-05 0)
(0.999531 -3.2976e-05 0)
(0.999546 -3.13586e-05 0)
(0.999561 -2.98445e-05 0)
(0.999575 -2.84259e-05 0)
(0.999588 -2.70952e-05 0)
(0.9996 -2.58457e-05 0)
(0.999612 -2.46715e-05 0)
(0.999624 -2.35669e-05 0)
(0.999635 -2.25268e-05 0)
(0.999645 -2.15467e-05 0)
(0.999656 -2.06222e-05 0)
(0.999665 -1.97496e-05 0)
(0.999674 -1.89251e-05 0)
(0.999683 -1.81456e-05 0)
(0.999692 -1.7408e-05 0)
(0.9997 -1.67096e-05 0)
(0.999708 -1.60478e-05 0)
(0.999715 -1.54203e-05 0)
(0.999723 -1.48248e-05 0)
(0.99973 -1.42593e-05 0)
(0.999736 -1.37221e-05 0)
(0.999743 -1.32112e-05 0)
(0.999749 -1.27253e-05 0)
(0.999755 -1.22627e-05 0)
(0.966346 -0.0842352 0)
(0.964501 -0.0520557 0)
(0.968786 -0.0332879 0)
(0.973839 -0.0221875 0)
(0.978289 -0.0153777 0)
(0.98192 -0.0110305 0)
(0.984821 -0.00814979 0)
(0.987133 -0.00617615 0)
(0.988987 -0.00478372 0)
(0.990486 -0.00377582 0)
(0.991711 -0.00302964 0)
(0.992721 -0.00246618 0)
(0.993562 -0.00203317 0)
(0.994268 -0.0016952 0)
(0.994867 -0.0014277 0)
(0.995379 -0.00121334 0)
(0.995818 -0.0010396 0)
(0.996199 -0.000897343 0)
(0.996531 -0.000779782 0)
(0.996821 -0.000681802 0)
(0.997077 -0.000599504 0)
(0.997304 -0.000529882 0)
(0.997505 -0.000470595 0)
(0.997685 -0.0004198 0)
(0.997846 -0.000376033 0)
(0.997991 -0.000338123 0)
(0.998122 -0.000305125 0)
(0.998241 -0.000276271 0)
(0.998349 -0.00025093 0)
(0.998447 -0.000228586 0)
(0.998537 -0.00020881 0)
(0.998619 -0.000191243 0)
(0.998695 -0.000175587 0)
(0.998764 -0.000161588 0)
(0.998828 -0.000149034 0)
(0.998888 -0.000137743 0)
(0.998943 -0.000127561 0)
(0.998994 -0.000118355 0)
(0.999041 -0.000110012 0)
(0.999085 -0.000102432 0)
(0.999126 -9.55299e-05 0)
(0.999165 -8.92326e-05 0)
(0.999201 -8.34751e-05 0)
(0.999234 -7.82007e-05 0)
(0.999266 -7.33601e-05 0)
(0.999296 -6.89095e-05 0)
(0.999324 -6.48105e-05 0)
(0.99935 -6.10292e-05 0)
(0.999375 -5.75354e-05 0)
(0.999398 -5.43024e-05 0)
(0.99942 -5.13062e-05 0)
(0.999441 -4.85257e-05 0)
(0.999461 -4.59419e-05 0)
(0.99948 -4.35375e-05 0)
(0.999498 -4.12975e-05 0)
(0.999515 -3.9208e-05 0)
(0.999531 -3.72565e-05 0)
(0.999546 -3.54319e-05 0)
(0.999561 -3.37241e-05 0)
(0.999574 -3.21239e-05 0)
(0.999588 -3.0623e-05 0)
(0.9996 -2.92137e-05 0)
(0.999612 -2.78893e-05 0)
(0.999624 -2.66434e-05 0)
(0.999635 -2.54703e-05 0)
(0.999645 -2.43647e-05 0)
(0.999655 -2.3322e-05 0)
(0.999665 -2.23377e-05 0)
(0.999674 -2.14078e-05 0)
(0.999683 -2.05285e-05 0)
(0.999692 -1.96965e-05 0)
(0.9997 -1.89087e-05 0)
(0.999708 -1.81622e-05 0)
(0.999715 -1.74542e-05 0)
(0.999723 -1.67824e-05 0)
(0.99973 -1.61445e-05 0)
(0.999736 -1.55384e-05 0)
(0.999743 -1.49621e-05 0)
(0.999749 -1.44137e-05 0)
(0.999755 -1.38918e-05 0)
(0.978385 -0.0890599 0)
(0.97017 -0.0570315 0)
(0.971452 -0.0370928 0)
(0.975116 -0.0249233 0)
(0.978906 -0.0173367 0)
(0.982214 -0.0124527 0)
(0.984951 -0.00920227 0)
(0.98718 -0.0069707 0)
(0.988991 -0.00539508 0)
(0.990469 -0.00425454 0)
(0.991683 -0.00341051 0)
(0.992689 -0.00277357 0)
(0.99353 -0.00228449 0)
(0.994238 -0.00190307 0)
(0.994838 -0.00160147 0)
(0.995352 -0.00135997 0)
(0.995794 -0.00116441 0)
(0.996177 -0.00100443 0)
(0.996511 -0.000872313 0)
(0.996803 -0.000762287 0)
(0.997061 -0.000669937 0)
(0.997289 -0.000591863 0)
(0.997492 -0.000525421 0)
(0.997673 -0.000468528 0)
(0.997836 -0.000419536 0)
(0.997982 -0.000377121 0)
(0.998114 -0.00034022 0)
(0.998233 -0.000307967 0)
(0.998342 -0.000279654 0)
(0.998441 -0.000254699 0)
(0.998531 -0.00023262 0)
(0.998614 -0.000213015 0)
(0.99869 -0.000195547 0)
(0.99876 -0.000179934 0)
(0.998825 -0.000165936 0)
(0.998884 -0.00015335 0)
(0.998939 -0.000142003 0)
(0.998991 -0.000131746 0)
(0.999038 -0.000122452 0)
(0.999083 -0.00011401 0)
(0.999124 -0.000106325 0)
(0.999163 -9.93137e-05 0)
(0.999199 -9.29048e-05 0)
(0.999233 -8.70347e-05 0)
(0.999264 -8.1648e-05 0)
(0.999294 -7.66959e-05 0)
(0.999322 -7.21357e-05 0)
(0.999349 -6.79293e-05 0)
(0.999374 -6.40431e-05 0)
(0.999397 -6.04473e-05 0)
(0.999419 -5.71153e-05 0)
(0.999441 -5.40233e-05 0)
(0.99946 -5.11501e-05 0)
(0.999479 -4.84767e-05 0)
(0.999497 -4.59862e-05 0)
(0.999514 -4.36631e-05 0)
(0.99953 -4.14935e-05 0)
(0.999546 -3.94652e-05 0)
(0.99956 -3.75666e-05 0)
(0.999574 -3.57878e-05 0)
(0.999587 -3.41193e-05 0)
(0.9996 -3.25527e-05 0)
(0.999612 -3.10804e-05 0)
(0.999624 -2.96955e-05 0)
(0.999635 -2.83914e-05 0)
(0.999645 -2.71625e-05 0)
(0.999655 -2.60034e-05 0)
(0.999665 -2.49092e-05 0)
(0.999674 -2.38754e-05 0)
(0.999683 -2.2898e-05 0)
(0.999692 -2.1973e-05 0)
(0.9997 -2.10972e-05 0)
(0.999708 -2.02672e-05 0)
(0.999716 -1.94801e-05 0)
(0.999723 -1.87331e-05 0)
(0.99973 -1.80238e-05 0)
(0.999737 -1.73498e-05 0)
(0.999743 -1.67089e-05 0)
(0.999749 -1.60992e-05 0)
(0.999755 -1.55187e-05 0)
(0.997019 -0.0817585 0)
(0.982303 -0.0570841 0)
(0.978825 -0.0391962 0)
(0.979604 -0.0272699 0)
(0.981706 -0.019412 0)
(0.984014 -0.0141653 0)
(0.986145 -0.010585 0)
(0.987994 -0.00808289 0)
(0.98956 -0.00629322 0)
(0.990876 -0.00498514 0)
(0.991981 -0.00400997 0)
(0.992911 -0.00326986 0)
(0.993698 -0.00269899 0)
(0.994367 -0.0022522 0)
(0.994939 -0.00189787 0)
(0.995431 -0.0016135 0)
(0.995857 -0.00138277 0)
(0.996228 -0.00119371 0)
(0.996552 -0.00103737 0)
(0.996837 -0.000907031 0)
(0.997089 -0.000797522 0)
(0.997313 -0.000704867 0)
(0.997512 -0.000625961 0)
(0.99769 -0.000558355 0)
(0.99785 -0.000500105 0)
(0.997994 -0.000449654 0)
(0.998124 -0.000405744 0)
(0.998242 -0.000367351 0)
(0.99835 -0.000333638 0)
(0.998448 -0.000303916 0)
(0.998537 -0.000277612 0)
(0.998619 -0.00025425 0)
(0.998695 -0.000233431 0)
(0.998764 -0.00021482 0)
(0.998828 -0.000198131 0)
(0.998888 -0.000183123 0)
(0.998942 -0.000169591 0)
(0.998993 -0.000157357 0)
(0.999041 -0.00014627 0)
(0.999085 -0.000136199 0)
(0.999126 -0.00012703 0)
(0.999165 -0.000118665 0)
(0.999201 -0.000111017 0)
(0.999234 -0.000104012 0)
(0.999266 -9.75831e-05 0)
(0.999296 -9.16725e-05 0)
(0.999324 -8.62292e-05 0)
(0.99935 -8.12079e-05 0)
(0.999375 -7.65686e-05 0)
(0.999398 -7.22756e-05 0)
(0.99942 -6.82974e-05 0)
(0.999441 -6.46055e-05 0)
(0.999461 -6.11747e-05 0)
(0.99948 -5.79823e-05 0)
(0.999498 -5.5008e-05 0)
(0.999515 -5.22336e-05 0)
(0.999531 -4.96425e-05 0)
(0.999546 -4.72198e-05 0)
(0.999561 -4.49521e-05 0)
(0.999575 -4.28272e-05 0)
(0.999588 -4.0834e-05 0)
(0.999601 -3.89625e-05 0)
(0.999613 -3.72036e-05 0)
(0.999624 -3.55489e-05 0)
(0.999635 -3.39909e-05 0)
(0.999646 -3.25225e-05 0)
(0.999656 -3.11374e-05 0)
(0.999666 -2.98298e-05 0)
(0.999675 -2.85944e-05 0)
(0.999684 -2.74262e-05 0)
(0.999692 -2.63208e-05 0)
(0.9997 -2.52739e-05 0)
(0.999708 -2.42818e-05 0)
(0.999716 -2.3341e-05 0)
(0.999723 -2.24481e-05 0)
(0.99973 -2.16001e-05 0)
(0.999737 -2.07943e-05 0)
(0.999743 -2.0028e-05 0)
(0.99975 -1.9299e-05 0)
(0.999756 -1.86049e-05 0)
(1.01171 -0.0635683 0)
(0.995724 -0.0498666 0)
(0.988759 -0.0372603 0)
(0.986518 -0.027539 0)
(0.986464 -0.0204778 0)
(0.987316 -0.0154294 0)
(0.988474 -0.0118093 0)
(0.989668 -0.0091843 0)
(0.990787 -0.00725316 0)
(0.991791 -0.00581046 0)
(0.992675 -0.00471616 0)
(0.993446 -0.003874 0)
(0.994115 -0.003217 0)
(0.994697 -0.00269797 0)
(0.995203 -0.00228313 0)
(0.995645 -0.00194798 0)
(0.996032 -0.00167454 0)
(0.996373 -0.00144939 0)
(0.996673 -0.00126246 0)
(0.996938 -0.00110603 0)
(0.997174 -0.000974202 0)
(0.997385 -0.000862351 0)
(0.997574 -0.000766863 0)
(0.997743 -0.000684874 0)
(0.997896 -0.000614095 0)
(0.998034 -0.000552685 0)
(0.998159 -0.000499153 0)
(0.998273 -0.000452282 0)
(0.998377 -0.000411072 0)
(0.998472 -0.000374698 0)
(0.998558 -0.000342473 0)
(0.998638 -0.000313826 0)
(0.998712 -0.000288274 0)
(0.998779 -0.000265413 0)
(0.998842 -0.000244898 0)
(0.9989 -0.000226437 0)
(0.998953 -0.000209781 0)
(0.999003 -0.000194714 0)
(0.99905 -0.000181052 0)
(0.999093 -0.000168635 0)
(0.999134 -0.000157326 0)
(0.999171 -0.000147003 0)
(0.999207 -0.000137561 0)
(0.99924 -0.00012891 0)
(0.999271 -0.000120967 0)
(0.999301 -0.000113662 0)
(0.999328 -0.000106933 0)
(0.999354 -0.000100724 0)
(0.999379 -9.4985e-05 0)
(0.999402 -8.96733e-05 0)
(0.999424 -8.47497e-05 0)
(0.999444 -8.01795e-05 0)
(0.999464 -7.59316e-05 0)
(0.999483 -7.1978e-05 0)
(0.9995 -6.82938e-05 0)
(0.999517 -6.48565e-05 0)
(0.999533 -6.16457e-05 0)
(0.999548 -5.86431e-05 0)
(0.999563 -5.58322e-05 0)
(0.999577 -5.31978e-05 0)
(0.99959 -5.07264e-05 0)
(0.999602 -4.84055e-05 0)
(0.999614 -4.6224e-05 0)
(0.999626 -4.41714e-05 0)
(0.999637 -4.22385e-05 0)
(0.999647 -4.04166e-05 0)
(0.999657 -3.86979e-05 0)
(0.999667 -3.70751e-05 0)
(0.999676 -3.55418e-05 0)
(0.999685 -3.40918e-05 0)
(0.999693 -3.27195e-05 0)
(0.999701 -3.14199e-05 0)
(0.999709 -3.01881e-05 0)
(0.999717 -2.90198e-05 0)
(0.999724 -2.79109e-05 0)
(0.999731 -2.68579e-05 0)
(0.999738 -2.5857e-05 0)
(0.999744 -2.49053e-05 0)
(0.99975 -2.39997e-05 0)
(0.999756 -2.31374e-05 0)
(1.01791 -0.0482526 0)
(1.00393 -0.0415886 0)
(0.996062 -0.033493 0)
(0.992238 -0.0262185 0)
(0.990736 -0.0203656 0)
(0.990463 -0.0158641 0)
(0.990794 -0.0124573 0)
(0.991392 -0.00988395 0)
(0.992083 -0.00793009 0)
(0.992778 -0.0064337 0)
(0.993436 -0.00527592 0)
(0.99404 -0.00437046 0)