/*--------------------------------*- C++ -*----------------------------------*\
  =========                 |
  \\      /  F ield         | OpenFOAM: The Open Source CFD Toolbox
   \\    /   O peration     | Website:  https://openfoam.org
    \\  /    A nd           | Version:  10
     \\/     M anipulation  |
\*---------------------------------------------------------------------------*/
FoamFile
{
    format      ascii;
    class       volScalarField;
    location    "2.64e-05";
    object      p;
}
// * * * * * * * * * * * * * * * * * * * * * * * * * * * * * * * * * * * * * //

dimensions      [0 2 -2 0 0 0 0];

internalField   nonuniform List<scalar> 
7600
(
37745.8
34756.9
28287.3
23947.9
20454.3
17635.2
15305.7
13343.2
11684.2
10067.2
33598.6
30866.4
24955.4
20996
17809.6
15240.1
13118.7
11333
9838.34
8420.38
29177.2
26725
21411.7
17857
14997.7
12693.9
10794.9
9201.43
7881.27
6645.43
24514.2
22358.3
17677.8
14549.8
12035.3
10010.8
8344.05
6947.95
5794.55
4708.45
19639.1
17791.8
13775.3
11094
8939.53
7206.11
5779.82
4585.57
3597.99
2661.75
14582
13053.2
9727.84
7510.18
5729.1
4296.66
3118.31
2131.31
1313.79
535.278
9373.91
8171.26
5559.96
3820.34
2423.62
1300.58
376.737
-397.515
-1039.71
-1652.82
4045.8
3175.98
1297.52
47.2922
-956.378
-1763.32
-2427.24
-2983.93
-3446.12
-3887.98
-1371.35
-1901.47
-3032.67
-3785.35
-4389.76
-4875.78
-5275.76
-5611.3
-5890.04
-6156.7
-6849.67
-7027.6
-7402.72
-7653.28
-7854.87
-8017.17
-8150.87
-8263.1
-8356.38
-8445.62
60032.6
55647.4
46175.6
39850
34780.3
30718.1
27394.8
24641.9
22340.4
20414.5
59603.4
55246.3
45833.7
39543.7
34501.2
30458.6
27148.6
24403.4
22103.2
20175.7
58747.9
54445.4
45147.9
38930.8
33943.8
29941.7
26659.6
23930.9
21634.9
19705.7
57469.2
53247.6
44121.7
38015
33112.6
29173
25935.1
23234.2
20947.7
19019.5
55776.5
51662.3
42763.3
36804
32015.6
28161.8
24986.4
22327.3
20059.4
18138.9
53681
49700.3
41082.2
35307.1
30662.4
26918.8
23826.9
21227.7
18993
17092.1
51196.6
47374.8
39090.1
33535
29063.9
25456.1
22470.9
19954.4
17775
15914
48340
44701.3
36800.1
31499.8
27231.8
23785.5
20931.8
18524.8
16434.8
14652.7
45130.9
41697.1
34226.9
29214.9
25178.1
21918
19219
16947.3
14991.7
13370.9
41591.6
38378
31384.9
26693.3
22914.9
19863.7
17337.8
15211.1
13389.5
11920.3
16485.9
12440.2
9783.73
7880.75
6456.07
5350.41
4472.56
3756.04
3159.65
2661.66
2244.43
1893.59
1596.66
1342.35
1127.43
946.563
794.792
667.635
560.966
471.569
396.624
333.674
280.717
236.204
198.804
167.376
140.957
118.738
100.043
84.3052
71.0528
59.8895
50.4839
42.5576
35.8772
30.246
25.4993
21.4976
18.1242
15.2803
12.883
10.862
9.15854
7.72258
6.51234
5.49222
4.63255
3.90793
3.29734
2.78262
2.34889
1.98322
1.67507
1.41522
1.19623
1.0115
0.855787
0.724354
0.613535
0.519895
0.440886
0.37401
0.317514
0.269596
0.22907
0.194615
0.165435
0.140496
0.119265
0.100958
0.0852664
0.0715713
0.059707
0.0491617
0.0398671
0.0314018
0.0237586
0.0165598
0.00983543
0.00324561
16312.7
12331.2
9710.88
7827.61
6414.53
5316.02
4442.91
3732.19
3140.4
2646.01
2231.69
1883.24
1589.04
1336.94
1123.38
943.438
792.33
665.682
559.39
470.292
395.59
332.83
280.019
235.627
198.326
166.98
140.629
118.466
99.8165
84.1169
70.896
59.7588
50.3749
42.4666
35.8012
30.1826
25.4462
21.4533
18.0872
15.2494
12.8571
10.8404
9.14048
7.70748
6.49973
5.48168
4.62375
3.90058
3.29119
2.77749
2.3446
1.97964
1.67208
1.41273
1.19415
1.00976
0.854339
0.72315
0.612527
0.519058
0.440183
0.373428
0.317024
0.269191
0.228728
0.194334
0.165195
0.140298
0.119093
0.100818
0.0851436
0.071474
0.0596215
0.049097
0.0398105
0.0313626
0.0237245
0.0165409
0.00981991
0.0032438
15972.9
12117.7
9567.73
7723.11
6332.82
5248.47
4384.8
3684.74
3102.08
2614.86
2206.31
1862.57
1573.16
1325.91
1115.19
937.137
787.38
661.766
556.234
467.737
393.522
331.145
278.627
234.475
197.373
166.191
139.975
117.923
99.3656
83.7418
70.5836
59.4984
50.1577
42.2854
35.6499
30.0562
25.3407
21.3651
18.0135
15.1878
12.8056
10.7974
9.10452
7.67744
6.47462
5.46071
4.60622
3.88595
3.27896
2.76728
2.33608
1.97253
1.66615
1.40778
1.19002
1.00632
0.851466
0.720759
0.61053
0.517397
0.438795
0.372274
0.316059
0.26839
0.228058
0.19378
0.164728
0.139907
0.118758
0.100538
0.084905
0.071278
0.059455
0.0489643
0.0397001
0.0312798
0.0236588
0.0164988
0.00979178
0.0032371
15479.2
11808.1
9359.23
7570.65
6213.56
5150.09
4300.45
3614.21
3045.08
2568.49
2168.5
1831.68
1548.13
1308.67
1102.6
927.533
779.878
655.858
551.486
463.901
390.422
328.624
276.546
232.753
195.949
165.013
138.999
117.114
98.6934
83.1828
70.1182
59.1106
49.8343
42.0155
35.4246
29.868
25.1835
21.2337
17.9037
15.096
12.729
10.7333
9.05098
7.63271
6.43724
5.42948
4.58013
3.86416
3.26076
2.75209
2.32339
1.96195
1.65731
1.40041
1.18387
1.0012
0.847189
0.717199
0.607559
0.514925
0.436731
0.370558
0.314626
0.2672
0.227062
0.192957
0.164034
0.139324
0.118259
0.100121
0.0845485
0.0709841
0.0592055
0.0487643
0.0395342
0.0311545
0.0235598
0.0164346
0.00974961
0.00322582
14849.7
11414.4
9092.44
7375.04
6060.36
5024.03
4192.89
3521.12
2969.94
2507.32
2118.58
1790.79
1514.86
1283.9
1085.04
914.356
769.686
647.892
545.112
458.768
386.289
325.271
273.781
230.469
194.063
163.454
137.708
116.044
97.8047
82.444
69.5032
58.5982
49.4071
41.6591
35.1271
29.6196
24.9759
21.0604
17.7588
14.975
12.6278
10.6488
8.98033
7.57368
6.38791
5.38828
4.5457
3.83541
3.23675
2.73204
2.30665
1.94797
1.64565
1.39069
1.17575
0.994434
0.841547
0.712499
0.603638
0.511661
0.434007
0.368293
0.312736
0.26563
0.225751
0.191869
0.163117
0.13855
0.1176
0.0995663
0.0840771
0.0705922
0.0588756
0.0484967
0.0393148
0.0309857
0.0234293
0.0163472
0.00969466
0.00320948
14106.5
10951.2
8776.21
7142.24
5877.63
4874
4065.69
3409.47
2877.49
2431.91
2056.98
1740.22
1473.47
1249.51
1061.25
897.014
756.497
637.719
537.035
452.301
381.107
321.085
270.335
227.628
191.72
161.52
136.109
114.719
96.7056
81.5307
68.7434
57.9654
48.8796
41.2191
34.7599
29.313
24.7199
20.8465
17.5801
14.8256
12.503
10.5445
8.89318
7.50086
6.32706
5.33745
4.50323
3.79994
3.20711
2.7073
2.28598
1.93073
1.63125
1.37868
1.16573
0.986084
0.83458
0.706696
0.598795
0.50763
0.430643
0.365495
0.310401
0.26369
0.22413
0.190522
0.161975
0.137588
0.116777
0.0988756
0.083488
0.0701036
0.0584626
0.0481629
0.0390394
0.0307749
0.023265
0.0162382
0.00962476
0.00318943
13274.7
10434.6
8420.79
6879.04
5670.23
4703.92
3922.48
3285.76
2768.31
2342.97
1984.24
1680.39
1424.38
1208.87
1027.19
873.895
739.62
624.973
527.058
444.391
374.822
316.045
266.2
224.23
188.925
159.217
134.209
113.147
95.4027
80.449
67.844
57.2168
48.2559
40.699
34.3259
28.9508
24.4174
20.5938
17.3691
14.6493
12.3557
10.4214
8.79028
7.41488
6.25522
5.27743
4.45309
3.75805
3.17212
2.67809
2.26159
1.91037
1.61425
1.3645
1.1539
0.976217
0.826347
0.699836
0.593072
0.502864
0.426666
0.362187
0.307641
0.261395
0.222215
0.188925
0.160616
0.136438
0.115797
0.0980492
0.0827859
0.0695181
0.0579702
0.0477618
0.0387111
0.0305208
0.0230694
0.0161058
0.00954234
0.00316438
12381
9879.25
8036.39
6592.07
5442.74
4517.33
3766.24
3152.63
2651.41
2240.85
1900.97
1611.77
1367.96
1162.2
988.336
841.241
716.294
608.655
514.694
434.754
367.262
310.05
261.322
220.246
185.666
156.543
132.008
111.331
93.9006
79.2038
66.81
56.357
47.54
40.1025
33.8285
28.5357
24.0709
20.3045
17.1273
14.4474
12.1869
10.2804
8.67246
7.31643
6.17295
5.20869
4.39565
3.71008
3.13204
2.64461
2.23363
1.88703
1.59477
1.34824
1.14033
0.9649
0.816903
0.691964
0.586503
0.497391
0.4221
0.358385
0.30447
0.258757
0.220011
0.187069
0.159036
0.1351
0.114655
0.0970861
0.0819671
0.0688349
0.0573955
0.0472934
0.0383274
0.0302235
0.0228405
0.0159505
0.0094457
0.00313532
11455.9
9316.66
7641.06
6294.3
5204.53
4321.18
3602.3
3014.23
2532.65
2136.74
1808.1
1534.97
1305.01
1110.28
945.16
805.236
686.023
583.655
497.112
422.248
358.051
303.032
255.652
215.645
181.925
153.492
129.508
109.276
92.2053
77.8019
65.6481
55.3923
46.7379
39.4348
33.2722
28.0719
23.6839
19.9815
16.8576
14.2221
11.9988
10.1232
8.54116
7.20675
6.08131
5.13214
4.3317
3.65665
3.08742
2.60735
2.20251
1.86105
1.57308
1.33014
1.12522
0.9523
0.806389
0.683198
0.579189
0.491297
0.417015
0.354152
0.30094
0.255818
0.217554
0.184992
0.157264
0.133594
0.11337
0.0959985
0.0810431
0.0680612
0.0567457
0.0467613
0.0378929
0.0298847
0.0225812
0.0157724
0.00933686
0.00310171
10448.3
8723.2
7209.08
5954.66
4928.6
4094.32
3414.34
2857.65
2401.16
2025.38
1713.33
1453.06
1233.31
1049.2
894.442
763.152
651.196
555.031
473.062
402.306
341.626
290.103
246.674
209.079
176.95
149.628
126.454
106.83
90.2271
76.19
64.327
54.3046
45.8391
38.6901
32.6537
27.5574
23.2553
19.624
16.5593
13.973
11.7906
9.9492
8.39567
7.08508
5.97956
5.04703
4.26051
3.59712
3.03761
2.5657
2.16768
1.83193
1.54873
1.3098
1.10822
0.938095
0.794519
0.673286
0.570908
0.484384
0.411241
0.349336
0.296919
0.252465
0.214717
0.182578
0.155208
0.13185
0.111886
0.094745
0.0799815
0.0671731
0.0560021
0.0461525
0.0373972
0.0294975
0.0222857
0.0155689
0.00921349
0.00306332
7300.8
7057.58
6055.43
5124.81
4298.79
3602.94
3024.04
2544.02
2146.43
1816.63
1541.59
1311.32
1116.97
952.796
813.875
695.788
594.928
508.324
434.184
370.256
315.257
268.156
227.961
193.495
164.039
138.946
117.617
99.5173
84.1733
71.1757
60.1716
50.8594
42.9816
36.319
30.6854
25.923
21.8977
18.496
15.6218
13.1936
11.1424
9.41001
7.94703
6.71168
5.66869
4.78816
4.04486
3.41744
2.88785
2.44085
2.06356
1.74509
1.47627
1.24933
1.05774
0.895949
0.759312
0.643877
0.546325
0.463839
0.394057
0.33497
0.284901
0.242414
0.206306
0.175557
0.149347
0.126966
0.107812
0.0913593
0.0771684
0.0648523
0.0540933
0.0446056
0.0361574
0.0285347
0.0215623
0.0150705
0.00891821
0.00296926
4010.2
4706.14
4440.11
3987.62
3478.5
2994.19
2560.61
2183.6
1860.72
1586.24
1353.33
1155.72
987.628
844.649
722.911
618.971
529.949
453.465
387.767
331.162
282.446
240.643
204.852
174.146
147.861
125.418
106.297
90.0345
76.2222
64.5028
54.5672
46.1492
39.0208
32.9868
27.8811
23.5622
19.9099
16.822
14.2118
12.0059
10.1419
8.56723
7.23708
6.11364
5.16492
4.36383
3.68745
3.11641
2.63433
2.22736
1.88379
1.59373
1.34885
1.14207
0.967457
0.819974
0.695378
0.590083
0.501065
0.425767
0.362035
0.308046
0.262267
0.223399
0.19035
0.162198
0.138177
0.11764
0.100034
0.0848873
0.0717967
0.0604163
0.0504524
0.0416507
0.0337949
0.0266948
0.0201853
0.0141168
0.00835622
0.00278319
1517.96
2608.45
2829.09
2759.99
2539.48
2267.76
1991.19
1731.49
1497.37
1290.99
1111.22
955.671
821.463
705.953
606.64
521.204
447.605
384.106
329.314
281.978
241.12
205.927
175.668
149.655
127.331
108.216
91.8825
77.953
66.0919
56.0051
47.4361
40.1628
33.9937
28.7642
24.3335
20.5811
17.4045
14.7161
12.4416
10.5178
8.89094
7.51553
6.35292
5.37034
4.54005
3.83853
3.24587
2.74522
2.32232
1.96511
1.66338
1.4085
1.19318
1.01127
0.857554
0.727637
0.617806
0.52492
0.446331
0.379799
0.323434
0.275639
0.235068
0.200583
0.171225
0.146185
0.124786
0.106457
0.090709
0.0771286
0.0653611
0.055103
0.0460954
0.0381151
0.0309706
0.0244946
0.0185403
0.0129765
0.00768506
0.00255982
-347.629
894.609
1420.12
1629.36
1641.74
1554.24
1420.86
1272.12
1124.34
985.64
859.5
746.89
647.468
560.348
484.365
418.251
360.78
310.836
267.461
229.797
197.135
168.865
144.445
123.375
105.229
89.636
76.2674
64.8295
55.0614
46.7322
39.6393
33.6059
28.4785
24.1246
20.43
17.2967
14.6407
12.3903
10.4843
8.87063
7.50478
6.34903
5.37129
4.54431
3.84499
3.25369
2.75381
2.33125
1.97406
1.67215
1.41695
1.20124
1.01887
0.864687
0.734298
0.624005
0.530681
0.451681
0.38477
0.328062
0.27996
0.239118
0.204398
0.174839
0.14963
0.128088
0.109637
0.0937925
0.08014
0.0683283
0.0580571
0.0490696
0.0411459
0.034097
0.0277599
0.0219924
0.0166693
0.0116792
0.00692135
0.00230549
-1760.9
-495.585
205.356
606.133
797.951
863.917
856.819
810.206
744.523
671.848
599.028
529.742
465.774
407.835
356.001
309.99
269.346
233.559
202.13
174.582
150.492
129.481
111.202
95.3339
81.5915
69.7211
59.4945
50.7058
43.1694
36.7196
31.209
26.5076
22.5015
19.0916
16.1918
13.7276
11.6352
9.85938
8.35311
7.07602
5.99369
5.07672
4.30008
3.64249
3.0858
2.61463
2.2159
1.87851
1.59305
1.35152
1.14716
0.974239
0.827901
0.704036
0.599168
0.510353
0.435102
0.371309
0.317196
0.271255
0.232214
0.198997
0.170695
0.146541
0.125885
0.10818
0.0929641
0.0798465
0.0684954
0.0586281
0.0500034
0.0424148
0.0356854
0.0296631
0.0242164
0.0192304
0.0146038
0.0102467
0.00607806
0.00202464
-2846.9
-1616.77
-824
-297.85
26.4204
215.068
314.978
358.811
368.373
357.859
336.308
309.367
280.484
251.711
224.209
198.575
175.064
153.733
134.53
117.347
102.051
88.5015
76.5513
66.0517
56.8611
48.8463
41.8818
35.8502
30.6424
26.158
22.3054
19.0024
16.1756
13.76
11.6984
9.94097
8.44424
7.17061
6.08763
5.16733
4.3857
3.72218
3.15913
2.68152
2.2765
1.93311
1.64204
1.39535
1.18628
1.0091
0.858937
0.731658
0.623754
0.532251
0.454629
0.388751
0.332809
0.28527
0.244836
0.21041
0.181061
0.156003
0.134571
0.116202
0.10042
0.0868224
0.0750695
0.0648729
0.0559878
0.0482053
0.041347
0.0352602
0.0298135
0.0248942
0.0204045
0.0162587
0.0123813
0.00870529
0.00517048
0.00172238
-3694.73
-2522.86
-1689.58
-1085.39
-666.591
-382.802
-194.831
-73.1356
3.52182
50.0027
76.5114
89.9662
95.0153
94.7634
91.2677
85.8796
79.4802
72.6415
65.7347
58.9976
52.5824
46.5824
41.0485
36.0012
31.4411
27.3555
23.722
20.5116
17.6912
15.2257
13.0794
11.2179
9.6085
8.22065
7.0266
6.00129
5.12235
4.36994
3.72665
3.17723
2.7084
2.30865
1.96802
1.67794
1.43101
1.22089
1.04213
0.890098
0.760795
0.650824
0.557286
0.477708
0.409985
0.352324
0.303203
0.261326
0.225593
0.195069
0.168961
0.146596
0.127401
0.110894
0.0966618
0.0843571
0.0736843
0.0643933
0.0562715
0.0491386
0.0428408
0.0372466
0.0322433
0.0277341
0.0236356
0.019876
0.0163927
0.0131308
0.0100417
0.0070825
0.00421498
0.00140416
-4365.68
-3258.28
-2414.74
-1765.04
-1280.86
-925.095
-666.336
-479.139
-343.999
-246.417
-175.832
-124.651
-87.4471
-60.3533
-40.613
-26.2567
-15.8694
-8.42482
-3.1701
0.453684
2.8669
4.38822
5.25964
5.66475
5.74304
5.60002
5.3146
4.94479
4.53233
4.10638
3.68665
3.28583
2.91153
2.56772
2.25588
1.97582
1.72627
1.50529
1.31063
1.13986
0.990573
0.860441
0.747274
0.64905
0.563932
0.490262
0.426561
0.371517
0.323974
0.282915
0.247452
0.21681
0.190319
0.167395
0.147536
0.130305
0.11533
0.102288
0.0909014
0.0809327
0.0721779
0.0644618
0.0576344
0.0515672
0.0461503
0.0412893
0.0369035
0.0329233
0.0292887
0.0259477
0.0228549
0.0199712
0.0172623
0.0146982
0.0122528
0.00990276
0.00762699
0.00540747
0.00322866
0.00107567
-4902.45
-3858.03
-3021.33
-2347.83
-1819.85
-1410.8
-1096.21
-854.93
-669.763
-527.218
-416.962
-331.195
-264.071
-211.222
-169.382
-136.098
-109.515
-88.2219
-71.1283
-57.3865
-46.3291
-37.4267
-30.2566
-24.4802
-19.825
-16.0715
-13.0428
-10.5965
-8.61818
-7.01612
-5.71685
-4.66154
-3.80309
-3.10378
-2.53333
-2.06742
-1.68648
-1.37471
-1.11935
-0.910058
-0.738442
-0.597679
-0.48221
-0.387498
-0.309836
-0.24619
-0.194073
-0.151446
-0.116635
-0.0882632
-0.0651987
-0.0465093
-0.0314272
-0.019319
-0.00966228
-0.00202587
0.00394637
0.00854852
0.0120235
0.0145718
0.0163593
0.0175228
0.0181751
0.0184096
0.018303
0.0179186
0.0173083
0.0165147
0.0155724
0.0145096
0.0133494
0.0121102
0.0108074
0.0094536
0.00805907
0.0066323
0.00518036
0.00371021
0.00222921
0.000742819
-5335.37
-4349.12
-3528.33
-2845.07
-2288.9
-1841.16
-1483.24
-1198
-970.705
-789.233
-643.853
-526.901
-432.396
-355.69
-293.173
-242.036
-200.079
-165.569
-137.13
-113.658
-94.2645
-78.2273
-64.9561
-53.9675
-44.8638
-37.3174
-31.058
-25.8626
-21.5474
-17.9605
-14.9768
-12.493
-10.424
-8.6994
-7.26098
-6.06064
-5.05849
-4.2215
-3.52219
-2.93778
-2.44928
-2.0409
-1.69946
-1.414
-1.17534
-0.975841
-0.809107
-0.669796
-0.553441
-0.456305
-0.375261
-0.307694
-0.251411
-0.204579
-0.165659
-0.133365
-0.106618
-0.0845138
-0.066295
-0.0513267
-0.0390772
-0.0291006
-0.0210235
-0.0145332
-0.00936747
-0.00530703
-0.00216816
0.000202882
0.00193483
0.00313554
0.00389551
0.0042909
0.00438605
0.00423557
0.00388613
0.00337781
0.00274549
0.00202102
0.00123448
0.000411531
-5686.47
-4752.31
-3951.59
-3267.37
-2694.03
-2218.75
-1827.66
-1507.15
-1244.87
-1030.17
-854.154
-709.511
-590.336
-491.876
-410.321
-342.613
-286.291
-239.367
-200.224
-167.541
-140.234
-117.407
-98.3173
-82.3491
-68.9887
-57.8077
-48.4483
-40.6118
-34.0487
-28.5504
-23.9429
-20.0807
-16.8425
-14.1268
-11.8487
-9.93732
-8.33342
-6.98732
-5.85749
-4.90911
-4.11301
-3.44474
-2.8838
-2.41297
-2.01781
-1.68622
-1.40801
-1.17464
-0.978936
-0.814874
-0.677391
-0.562233
-0.465829
-0.385175
-0.317749
-0.261431
-0.21444
-0.175278
-0.142688
-0.115612
-0.0931624
-0.0745922
-0.0592747
-0.0466831
-0.036375
-0.0279789
-0.0211826
-0.015724
-0.0113826
-0.00797299
-0.00533874
-0.00334765
-0.00188758
-0.000862902
-0.00019155
0.000197361
0.000365869
0.000370086
0.000262262
8.77399e-05
-5971.99
-5083.53
-4304.11
-3624.17
-3041.23
-2546.77
-2130.62
-1782.14
-1491.15
-1248.47
-1046.1
-877.224
-736.159
-618.174
-519.368
-436.527
-367.003
-308.609
-259.534
-218.275
-183.578
-154.394
-129.848
-109.201
-91.8345
-77.2285
-64.9444
-54.6132
-45.9245
-38.617
-32.4711
-27.3019
-22.9541
-19.297
-16.2209
-13.6333
-11.4568
-9.62606
-8.08614
-6.79094
-5.70161
-4.78551
-4.01516
-3.36745
-2.82292
-2.36521
-1.98054
-1.65733
-1.38583
-1.15781
-0.966388
-0.80574
-0.670978
-0.557985
-0.463298
-0.384003
-0.317647
-0.262166
-0.215826
-0.177164
-0.144952
-0.118157
-0.0959091
-0.0774768
-0.0622457
-0.0496984
-0.0394003
-0.030985
-0.0241448
-0.0186194
-0.0141899
-0.01067
-0.00790211
-0.00575117
-0.00410149
-0.00285241
-0.00191615
-0.00121313
-0.000670157
-0.000222794
-6204.09
-5355.08
-4596.42
-3923.56
-3336.1
-2828.59
-2393.75
-2023.34
-1709.07
-1443.12
-1218.4
-1028.64
-868.46
-733.236
-619.061
-522.638
-441.192
-372.388
-314.263
-265.161
-223.687
-188.662
-159.089
-134.127
-113.06
-95.2863
-80.2938
-67.6501
-56.9891
-48.0014
-40.4255
-34.0405
-28.6598
-24.1259
-20.306
-17.0879
-14.3771
-12.0939
-10.171
-8.55179
-7.18842
-6.04063
-5.07446
-4.2613
-3.57701
-3.00127
-2.51696
-2.10964
-1.76715
-1.47924
-1.23729
-1.03403
-0.863323
-0.720026
-0.59979
-0.498958
-0.414449
-0.34367
-0.284436
-0.23491
-0.193544
-0.159035
-0.130286
-0.106375
-0.086526
-0.0700846
-0.0565009
-0.0453117
-0.0361264
-0.0286158
-0.0225011
-0.0175464
-0.0135507
-0.0103425
-0.00777402
-0.00571731
-0.00405976
-0.00270051
-0.00154607
-0.000514527
-6391.97
-5576.44
-4836.95
-4172.38
-3583.63
-3067.51
-2618.89
-2231.48
-1898.58
-1613.56
-1370.16
-1162.71
-986.118
-835.95
-708.342
-599.964
-507.965
-429.904
-363.698
-307.572
-260.013
-219.73
-185.626
-156.765
-132.353
-111.711
-94.2641
-79.5226
-67.071
-56.5567
-47.6806
-40.1893
-33.8681
-28.5354
-24.0375
-20.2444
-17.0462
-14.35
-12.0775
-10.1623
-8.54858
-7.18904
-6.04387
-5.07941
-4.2673
-3.58361
-3.00813
-2.52384
-2.11638
-1.77365
-1.48545
-1.24317
-1.03955
-0.868505
-0.724869
-0.604309
-0.50317
-0.418374
-0.347328
-0.287847
-0.238091
-0.196512
-0.161806
-0.132874
-0.108791
-0.0887798
-0.0721841
-0.0584519
-0.0471166
-0.0377857
-0.0301257
-0.0238552
-0.0187333
-0.0145554
-0.011144
-0.00834634
-0.00602694
-0.00406554
-0.00234997
-0.000782254
-6542.58
-5754.96
-5032.43
-4376.24
-3788.14
-3266.53
-2807.91
-2407.51
-2059.91
-1759.5
-1500.8
-1278.63
-1088.26
-925.42
-786.333
-667.678
-566.558
-480.462
-407.218
-344.956
-292.067
-247.171
-209.084
-176.793
-149.432
-126.26
-106.646
-90.0505
-76.0153
-64.1498
-54.1223
-45.6507
-38.4959
-32.4547
-27.3551
-23.0515
-19.4204
-16.3573
-13.774
-11.5958
-9.75938
-8.21152
-6.90709
-5.80802
-4.88215
-4.10235
-3.44571
-2.89289
-2.42758
-2.03602
-1.70662
-1.42957
-1.19664
-1.00086
-0.836376
-0.698235
-0.582275
-0.484986
-0.403409
-0.335053
-0.277819
-0.229936
-0.189918
-0.156508
-0.128651
-0.105456
-0.086175
-0.0701744
-0.0569221
-0.0459672
-0.0369294
-0.0294846
-0.0233585
-0.018315
-0.0141519
-0.0106925
-0.00778294
-0.00528383
-0.00306751
-0.00102121
-6661.2
-5896.26
-5188.14
-4539.7
-3953.25
-3428.3
-2962.54
-2552.38
-2193.43
-1880.9
-1609.95
-1375.86
-1174.22
-1000.93
-852.322
-725.092
-616.329
-523.473
-444.289
-376.836
-319.428
-270.614
-229.139
-193.927
-164.051
-138.72
-117.255
-99.0749
-83.6853
-70.6637
-59.6502
-50.3389
-42.4695
-35.8208
-30.2052
-25.4636
-21.4609
-18.0828
-15.2327
-12.8284
-10.8007
-9.09098
-7.64966
-6.43486
-5.41118
-4.54874
-3.82228
-3.21051
-2.69543
-2.26187
-1.89701
-1.59006
-1.33189
-1.11483
-0.932391
-0.779116
-0.650397
-0.542351
-0.451708
-0.375711
-0.312036
-0.258726
-0.214133
-0.176867
-0.145759
-0.119823
-0.0982279
-0.0802739
-0.0653701
-0.0530167
-0.0427915
-0.0343356
-0.027344
-0.0215551
-0.0167439
-0.0127147
-0.00929618
-0.00633394
-0.00368584
-0.00122712
-6751.77
-6004.62
-5308.18
-4666.4
-4081.92
-3555.04
-3084.33
-2667.04
-2299.57
-1977.8
-1697.39
-1454.01
-1243.49
-1061.94
-905.744
-771.655
-656.754
-558.452
-474.472
-402.815
-341.744
-289.747
-245.517
-207.926
-176.002
-148.91
-125.935
-106.461
-89.9648
-75.9981
-64.1786
-54.1803
-45.7262
-38.5802
-32.542
-27.4416
-23.1345
-19.4983
-16.4293
-13.8398
-11.6552
-9.81277
-8.25916
-6.94942
-5.84548
-4.91522
-4.13148
-3.47132
-2.91539
-2.44734
-2.05338
-1.72186
-1.44297
-1.20844
-1.01126
-0.845556
-0.706357
-0.589478
-0.491388
-0.409114
-0.340148
-0.28238
-0.234028
-0.193595
-0.159816
-0.131627
-0.108132
-0.0885733
-0.0723122
-0.05881
-0.047609
-0.0383226
-0.0306195
-0.0242183
-0.0188742
-0.0143769
-0.01054
-0.00719699
-0.00419396
-0.00139632
-6817.17
-6083.22
-5395.63
-4759.09
-4176.45
-3648.54
-3174.52
-2752.28
-2378.76
-2050.32
-1763.01
-1512.8
-1295.73
-1108.03
-946.17
-806.939
-687.423
-585.018
-497.413
-422.577
-358.73
-304.318
-257.996
-218.597
-185.115
-156.684
-132.557
-112.098
-94.7588
-80.0717
-67.6372
-57.1149
-48.2145
-40.6889
-34.3281
-28.9536
-24.414
-20.5806
-17.3445
-14.6133
-12.3088
-10.3649
-8.72542
-7.34307
-6.17776
-5.19563
-4.36806
-3.6709
-3.08371
-2.58928
-2.17304
-1.82274
-1.528
-1.28008
-1.07163
-0.896412
-0.749193
-0.625552
-0.521762
-0.434683
-0.361668
-0.300487
-0.249259
-0.2064
-0.170577
-0.140664
-0.115714
-0.0949267
-0.0776273
-0.0632452
-0.0512978
-0.0413749
-0.0331278
-0.0262571
-0.0205056
-0.0156495
-0.0114926
-0.00785771
-0.00458291
-0.00152584
-6859.46
-6134.34
-5452.72
-4819.79
-4238.54
-3710.13
-3234.11
-2808.74
-2431.33
-2098.57
-1806.77
-1552.08
-1330.68
-1138.91
-973.287
-830.632
-708.035
-602.884
-512.853
-435.884
-370.172
-314.138
-266.409
-225.794
-191.263
-161.928
-137.027
-115.903
-97.9954
-82.8222
-69.973
-59.097
-49.8954
-42.1136
-35.5349
-29.9754
-25.2787
-21.312
-17.963
-15.1361
-12.7506
-10.7381
-9.04063
-7.60921
-6.40242
-5.38523
-4.52804
-3.80585
-3.19753
-2.68526
-2.25397
-1.89096
-1.5855
-1.32854
-1.11246
-0.930807
-0.778165
-0.64995
-0.542306
-0.451977
-0.376223
-0.312733
-0.259559
-0.215061
-0.177855
-0.146776
-0.120842
-0.0992237
-0.0812218
-0.0662449
-0.0537925
-0.0434395
-0.0348241
-0.0276362
-0.0216089
-0.0165104
-0.0121368
-0.00830439
-0.00484578
-0.00161336
-6879.89
-6159.45
-5480.89
-4849.81
-4269.3
-3740.7
-3263.73
-2836.86
-2457.56
-2122.68
-1828.65
-1571.74
-1348.19
-1154.39
-986.894
-842.528
-718.39
-611.865
-520.616
-442.577
-375.929
-319.08
-270.644
-229.417
-194.358
-164.569
-139.278
-117.82
-99.6259
-84.208
-71.1499
-60.0958
-50.7425
-42.8315
-36.1431
-30.4904
-25.7145
-21.6808
-18.2748
-15.3997
-12.9734
-10.9263
-9.19956
-7.7434
-6.5157
-5.48083
-4.6087
-3.8739
-3.25493
-2.73366
-2.29478
-1.92536
-1.61449
-1.35297
-1.13304
-0.94815
-0.792772
-0.662251
-0.552662
-0.460695
-0.38356
-0.318905
-0.26475
-0.219425
-0.181522
-0.149855
-0.123425
-0.101388
-0.0830327
-0.0677561
-0.0550492
-0.0444796
-0.0356787
-0.0283309
-0.0221648
-0.0169442
-0.0124611
-0.00852907
-0.00497789
-0.00165733
-8700.8
-6916.74
-5137.39
-3365.37
-1602.47
150.1
1896.65
3623.79
5232.48
6121.14
-8908.64
-7541.34
-6177.35
-4818.58
-3466.66
-2122.84
-786.575
539.895
1880.48
2834.17
-9053.1
-7981.89
-6912.78
-5846.9
-4785.28
-3728.89
-2678.09
-1637.16
-581.737
346.713
-9142.73
-8261.08
-7382.44
-6508.62
-5641.28
-4782.02
-3931.79
-3094.32
-2253.04
-1483.5
-9207.26
-8466.33
-7728.34
-6995.1
-6268.37
-5549.87
-4840.97
-4145.05
-3451.56
-2811.92
-9254.12
-8619.1
-7987.07
-7359.86
-6739.26
-6127
-5524.54
-4934.66
-4350.57
-3808.29
-9289.24
-8736.64
-8186.92
-7641.9
-7103.32
-6572.87
-6052.03
-5543.18
-5041.97
-4574.02
-9315.94
-8828.52
-8343.86
-7863.68
-7389.66
-6923.42
-6466.38
-6020.59
-5583.3
-5172.98
-9336.42
-8901.25
-8468.67
-8040.33
-7617.79
-7202.58
-6796.07
-6400.01
-6012.75
-5647.71
-9352.24
-8959.33
-8568.84
-8182.32
-7801.22
-7426.98
-7060.88
-6704.45
-6356.76
-6027.64
-9364.5
-9006
-8649.75
-8297.18
-7949.67
-7608.54
-7274.98
-6950.35
-6634.19
-6333.75
-9374.02
-9043.64
-8715.35
-8390.47
-8070.29
-7756.02
-7448.77
-7149.74
-6858.81
-6581.33
-9381.42
-9074.06
-8768.62
-8466.34
-8168.41
-7875.94
-7589.97
-7311.55
-7040.82
-6781.68
-9387.17
-9098.6
-8811.8
-8527.92
-8248.05
-7973.23
-7704.4
-7442.52
-7187.86
-6943.28
-9391.62
-9118.29
-8846.6
-8577.58
-8312.27
-8051.6
-7796.47
-7547.7
-7305.68
-7072.49
-9395.05
-9133.93
-8874.3
-8617.14
-8363.38
-8113.89
-7869.48
-7630.91
-7398.62
-7174.09
-9397.67
-9146.09
-8895.88
-8647.93
-8403.09
-8162.18
-7925.93
-7695.01
-7469.9
-7251.65
-9399.6
-9155.15
-8911.95
-8670.83
-8432.57
-8197.9
-7967.5
-7741.97
-7521.77
-7307.67
-9400.98
-9161.44
-8923.06
-8686.58
-8452.73
-8222.17
-7995.51
-7773.29
-7555.95
-7344.02
-9401.56
-9164.31
-8928.19
-8693.92
-8462.2
-8233.67
-8008.86
-7788.24
-7572.17
-7360.98
-29271.9
-30876.7
-32528.3
-34484.9
-36809.8
-39625.5
-43117.2
-47455.5
-53925.8
-56922.7
-27620.4
-29031.1
-30519.8
-32300.4
-34417.7
-36984.2
-40168.7
-44127.3
-50039.3
-52780.7
-25839.6
-27072.2
-28388.4
-29978
-31873.8
-34175
-37032.7
-40587
-45901.7
-48364.1
-23899.5
-24983.9
-26134.7
-27528.1
-29192.3
-31214.7
-33728.1
-36856
-41538.4
-43705.6
-21851.2
-22786.3
-23772.1
-24964.4
-26388.8
-28120.7
-30274.4
-32956.1
-36975
-38834.4
-19723.7
-20501.4
-21317.6
-22303.2
-23480.2
-24911.6
-26692.3
-28910.7
-32238.9
-33780.8
-17535
-18147.4
-18788.7
-19561.9
-20484.8
-21607.2
-23003.8
-24744.5
-27359.1
-28575.5
-15299.4
-15740.7
-16202.2
-16758.1
-17421.4
-18227.9
-19231.8
-20483.4
-22365.5
-23249.5
-13030.4
-13296.6
-13574.8
-13909.8
-14309.2
-14795
-15399.8
-16154.1
-17289.2
-17833.8
-10741.4
-10830.2
-10923
-11034.7
-11168
-11330.1
-11532.2
-11784.5
-12163.7
-12356.2
-39476.6
-41420.6
-43736.7
-46501.7
-49834.9
-53904.7
-58980.1
-65309.2
-74782.9
-79170.1
-39243.1
-41187.8
-43501.7
-46258.4
-49577.5
-53627.2
-58675.1
-64968.3
-74382.7
-78741.9
-38783.9
-40728.2
-43036.2
-45774.7
-49064.6
-53072.9
-58064.5
-64284.3
-73583.4
-77888.3
-38113.8
-40053.8
-42349.4
-45057.8
-48301.7
-52246
-57152.1
-63260.9
-72388.2
-76612.5
-37254.1
-39181.7
-41454.9
-44118.4
-47297.5
-51154.4
-55945.3
-61906
-70806
-74923.4
-36231.9
-38133.6
-40369
-42969.2
-46062.4
-49807.1
-54453.1
-60228.9
-68847.6
-72832.1
-35079.3
-36934
-39109.3
-41623.5
-44607.6
-48214.8
-52686
-58241.1
-66526.2
-70352.4
-33839.1
-35609.1
-37691.5
-40093.7
-42944.3
-46388.7
-50655.8
-55955.5
-63857
-67500.9
-32565.8
-34175.4
-36122.9
-38388.6
-41083.3
-44340.5
-48375.7
-53386.8
-60857.3
-64297.2
-31124
-32580.5
-34393.3
-36513.3
-39034.3
-42082.1
-45858.5
-50549
-57542.6
-60763.2
-19995.3
-20021.7
-20075.4
-20158.2
-20273.3
-20425.4
-20621.3
-20869.3
-21176.8
-21554.3
-22015.9
-22578.5
-23263.1
-24095.7
-25087.1
-26280.2
-27746.1
-29659.7
-32248.5
-35972.6
-19992.5
-20018.9
-20072.4
-20155.1
-20270.1
-20421.8
-20617.1
-20864.3
-21170.7
-21546.5
-22005.9
-22565.6
-23245.7
-24070.9
-25049.5
-26229.1
-27681.1
-29575.5
-32127.7
-35792.8
-19986.9
-20013.1
-20066.6
-20149
-20263.6
-20414.7
-20608.9
-20854.5
-21158.4
-21531.1
-21986.1
-22539.8
-23210.8
-24020.3
-24974.7
-26127.9
-27555.1
-29411.4
-31892
-35440.7
-19978.5
-20004.6
-20057.8
-20139.9
-20253.9
-20404.1
-20596.6
-20839.8
-21140.2
-21508.1
-21956.7
-22501.4
-23158.3
-23939.4
-24864
-25978.1
-27375.5
-29175.2
-31552.2
-34930.9
-19967.4
-19993.3
-20046.2
-20127.8
-20241.1
-20390.1
-20580.6
-20820.7
-21116.4
-21477.8
-21917.9
-22450.4
-23087.2
-23830.3
-24719.8
-25791.6
-27151.9
-28877.2
-31123.2
-34283.3
-19953.6
-19979.3
-20031.8
-20112.9
-20225.2
-20372.8
-20561
-20797.2
-21087.2
-21440.6
-21869.9
-22386.5
-22993.2
-23697.2
-24544.9
-25584.7
-26894
-28529.2
-30621.8
-33521.7
-19937.1
-19962.7
-20014.8
-20095.2
-20206.5
-20352.5
-20538
-20769.8
-21052.8
-21396.6
-21812.5
-22307.4
-22870.1
-23542.2
-24350.4
-25363.2
-26610.6
-28143
-30065.6
-32672.6
-19918.1
-19943.4
-19995.1
-20074.8
-20185.1
-20329.2
-20511.9
-20738.7
-21013.6
-21345.8
-21743.2
-22199
-22731.4
-23370.4
-24162.3
-25131
-26308.5
-27729.4
-29469.8
-31763.7
-19896.6
-19921.8
-19973.1
-20052.1
-20161.2
-20303.6
-20483.6
-20705.6
-20970.4
-21282.9
-21649.7
-22081.9
-22600.1
-23220.3
-23977.2
-24895.4
-25999.6
-27305.3
-28863.8
-30821.7
-19872.7
-19897.7
-19948.4
-20026.4
-20133.9
-20273.5
-20447.2
-20653.3
-20905
-21207.2
-21560.1
-21973.1
-22465.3
-23053.4
-23766.4
-24625.5
-25651.9
-26849
-28232.8
-29772.7
-19822.7
-19846.1
-19893.5
-19966.1
-20065.5
-20193.8
-20352.4
-20542.6
-20769.7
-21037.8
-21350.2
-21714.6
-22143.2
-22648.2
-23245.4
-23942.7
-24735.8
-25582.9
-26439
-26522.4
-19731.9
-19752.3
-19793.6
-19856.5
-19942.1
-20051.8
-20186.9
-20348.9
-20540.6
-20764.6
-21023.2
-21320.2
-21660.2
-22046
-22476.5
-22938.1
-23395.3
-23759.4
-23910.9
-23170.6
-19626.2
-19643.2
-19677.3
-19729.2
-19799.4
-19888.6
-19997.6
-20127.1
-20278.2
-20451.7
-20647.7
-20866.2
-21105.8
-21361.2
-21620
-21855.7
-22018.4
-22011.7
-21718.9
-20653.1
-19508.1
-19521.5
-19548.3
-19588.7
-19643.1
-19711.5
-19794
-19890.6
-20001
-20124.3
-20258.5
-20400.6
-20544.5
-20679.6
-20787.1
-20834.6
-20769.6
-20505.4
-19947.8
-18769.1
-19380.3
-19389.9
-19409.2
-19438.1
-19476.4
-19523.9
-19580
-19643.8
-19713.9
-19788.1
-19862.7
-19932.2
-19987.7
-20015.6
-19994.3
-19891.2
-19658.1
-19225
-18523.9
-17342
-19245.4
-19251.4
-19263.1
-19280.5
-19303
-19329.9
-19360.2
-19392.2
-19423.8
-19451.4
-19470.2
-19473.3
-19450.3
-19386.2
-19259.8
-19040.9
-18689.3
-18151.4
-17381.8
-16244
-19106.2
-19108.5
-19113
-19119.1
-19126.3
-19133.5
-19139
-19140.9
-19136.2
-19120.7
-19088.9
-19032.9
-18942
-18801.5