/*--------------------------------*- C++ -*----------------------------------*\
  =========                 |
  \\      /  F ield         | OpenFOAM: The Open Source CFD Toolbox
   \\    /   O peration     | Website:  https://openfoam.org
    \\  /    A nd           | Version:  10
     \\/     M anipulation  |
\*---------------------------------------------------------------------------*/
FoamFile
{
    format      ascii;
    class       surfaceScalarField;
    location    "2.64e-05";
    object      phi;
}
// * * * * * * * * * * * * * * * * * * * * * * * * * * * * * * * * * * * * * //

dimensions      [0 3 -1 0 0 0 0];

internalField   nonuniform List<scalar> 
14980
(
0.0361826
-0.511519
0.475336
0.0665686
-0.434405
0.404019
0.0942604
-0.39644
0.368748
0.120055
-0.369773
0.343978
0.144511
-0.351154
0.326698
0.167943
-0.337611
0.31418
0.190469
-0.327508
0.304982
0.211985
-0.319799
0.298282
0.23147
-0.313869
0.294384
-0.308551
0.290031
0.24999
0.0329893
-0.544508
0.0607041
-0.46212
0.0859513
-0.421687
0.109449
-0.39327
0.131703
-0.373409
0.153004
-0.358912
0.173502
-0.348006
0.19325
-0.339547
0.212079
-0.332698
-0.326921
0.230448
0.0295993
-0.574108
0.0544769
-0.486998
0.0771258
-0.444336
0.0981946
-0.414339
0.118143
-0.393357
0.137244
-0.378013
0.155672
-0.366434
0.173555
-0.35743
0.191015
-0.350158
-0.344357
0.208451
0.0260412
-0.600149
0.0479307
-0.508887
0.0678449
-0.464251
0.0863649
-0.432859
0.103902
-0.410894
0.120709
-0.39482
0.136961
-0.382686
0.152795
-0.373265
0.168341
-0.365704
-0.359863
0.183846
0.0223414
-0.62249
0.0411056
-0.527651
0.0581645
-0.48131
0.0740263
-0.44872
0.0890504
-0.425918
0.103463
-0.409233
0.117423
-0.396645
0.131056
-0.386898
0.144472
-0.37912
-0.373201
0.157811
0.0185243
-0.641015
0.0340439
-0.543171
0.0481426
-0.495408
0.061249
-0.461827
0.0736668
-0.438336
0.0855881
-0.421154
0.0971482
-0.408205
0.108451
-0.398201
0.119578
-0.390247
-0.384238
0.130615
0.014614
-0.655629
0.0267897
-0.555347
0.037839
-0.506458
0.0481067
-0.472095
0.0578371
-0.448066
0.0671838
-0.430501
0.0762538
-0.417275
0.0851265
-0.407074
0.0938592
-0.398979
-0.392887
0.102508
0.0106348
-0.666263
0.0193883
-0.5641
0.0273158
-0.514385
0.0346769
-0.479456
0.0416541
-0.455043
0.0483593
-0.437206
0.0548693
-0.423785
0.0612393
-0.413444
0.0675075
-0.405247
-0.399089
0.0737096
0.00661083
-0.672874
0.0118883
-0.569377
0.0166365
-0.519133
0.0210398
-0.483859
0.025215
-0.459219
0.0292302
-0.441221
0.033131
-0.427686
0.0369494
-0.417262
0.0407068
-0.409005
-0.402805
0.0444232
0.00257263
-0.675447
0.00434113
-0.571146
0.00586553
-0.520658
0.00727687
-0.48527
0.00861991
-0.460562
0.00991584
-0.442517
0.0111783
-0.428949
0.0124168
-0.418501
0.0136373
-0.410225
0.0148458
-0.404014
0.0529539
-0.0529539
-3.42724e-09
0.0978946
-0.0449407
-2.78987e-09
0.1388
-0.0409052
-2.36908e-09
0.176949
-0.0381488
-2.0351e-09
0.213176
-0.0362278
-1.74214e-09
0.248009
-0.0348329
-1.46567e-09
0.281802
-0.0337925
-1.24852e-09
0.314805
-0.033003
-1.06009e-09
0.347191
-0.0323861
-9.64231e-10
-0.031975
0.379166
-9.13809e-10
0.052597
-0.105551
0.0972183
-0.089562
0.137883
-0.0815697
0.175805
-0.0760708
0.211815
-0.0722382
0.246435
-0.0694531
0.280017
-0.0673736
0.312807
-0.0657934
0.344978
-0.0645571
-0.0637316
0.376734
0.0519104
-0.157461
0.0959571
-0.133609
0.136121
-0.121734
0.173577
-0.113527
0.209143
-0.107804
0.243331
-0.103641
0.276485
-0.100527
0.308845
-0.0981541
0.340581
-0.0962925
-0.0950435
0.371893
0.050904
-0.208365
0.0941069
-0.176812
0.133519
-0.161146
0.170276
-0.150284
0.205177
-0.142705
0.23872
-0.137184
0.271237
-0.133044
0.302958
-0.129876
0.334043
-0.127377
-0.125684
0.364683
0.0495793
-0.257945
0.0916753
-0.218908
0.13009
-0.199561
0.165922
-0.186115
0.199944
-0.176728
0.232639
-0.169879
0.264322
-0.164728
0.295209
-0.160762
0.32544
-0.157609
-0.155425
0.355182
0.0479416
-0.305886
0.0886733
-0.259639
0.125855
-0.236743
0.160542
-0.220802
0.193481
-0.209667
0.225135
-0.201533
0.255807
-0.195399
0.285686
-0.190642
0.314887
-0.18681
-0.184044
0.343506
0.0459981
-0.351884
0.0851157
-0.298757
0.120836
-0.272463
0.154167
-0.254132
0.185826
-0.241325
0.216261
-0.231969
0.245763
-0.224901
0.274502
-0.219381
0.302559
-0.214867
-0.211308
0.329822
0.0437584
-0.395643
0.0810199
-0.336018
0.115062
-0.306505
0.146832
-0.285902
0.17702
-0.271513
0.206064
-0.261013
0.23426
-0.253097
0.261774
-0.246894
0.288689
-0.241782
-0.237051
0.314432
0.0412348
-0.436878
0.0764056
-0.371189
0.108563
-0.338663
0.138575
-0.315915
0.167101
-0.300038
0.194579
-0.288492
0.221349
-0.279866
0.247685
-0.27323
0.273948
-0.268044
-0.262788
0.299685
0.0384588
0.071289
0.101375
0.129438
0.156098
0.181785
0.206901
0.231953
0.258293
0.285535
0.395044
-0.0158784
-4.19162e-09
0.403417
-0.00837311
-3.00601e-09
0.408351
-0.0049334
-1.6622e-09
0.411377
-0.00302567
-4.33612e-10
0.413291
-0.0019145
1.86966e-10
0.414509
-0.00121805
7.56637e-10
0.415288
-0.000778518
1.40772e-09
0.415755
-0.000467635
-5.40043e-11
0.415984
-0.000228507
-1.19891e-10
0.41604
-5.66042e-05
-1.22244e-10
0.415972
6.84304e-05
-3.85537e-11
0.415812
0.000159743
2.35779e-11
0.415585
0.000227458
-2.0013e-10
0.415291
0.00029332
-1.30824e-10
0.414951
0.000339991
1.64241e-12
0.414576
0.000375118
-1.62457e-11
0.414174
0.000402181
5.69594e-11
0.413751
0.000423004
1.28414e-11
0.413311
0.000440309
7.2516e-11
0.412857
0.000454145
1.51934e-11
0.412391
0.000465241
8.24182e-11
0.411917
0.000474525
4.14342e-13
0.411434
0.000482522
6.40962e-11
0.410945
0.000489105
-1.33283e-11
0.410451
0.00049453
5.36177e-11
0.409952
0.000499039
-2.92706e-11
0.409449
0.000502811
3.16496e-11
0.408943
0.000505981
-5.63697e-11
0.408434
0.00050865
3.00109e-12
0.407923
0.0005109
-8.88053e-11
0.407411
0.000512797
-3.49221e-11
0.406896
0.000514398
-1.28509e-10
0.40638
0.000515748
-7.47579e-11
0.405864
0.000516887
-1.74646e-10
0.405346
0.000517849
-1.21674e-10
0.404827
0.000518659
-2.20234e-10
0.404308
0.000519343
-1.69161e-10
0.403788
0.00051992
-2.62448e-10
0.403267
0.000520406
-2.10984e-10
0.402747
0.000520816
-2.97991e-10
0.402225
0.000521162
-2.3681e-10
0.401704
0.000521454
-3.15551e-10
0.401182
0.0005217
-2.4651e-10
0.40066
0.000521907
-3.14953e-10
0.400138
0.000522082
-2.29565e-10
0.399616
0.000522229
-2.88634e-10
0.399094
0.000522353
-1.95235e-10
0.398571
0.000522458
-2.50862e-10
0.398049
0.000522547
-1.60799e-10
0.397526
0.000522621
-2.22221e-10
0.397003
0.000522683
-1.56618e-10
0.396481
0.000522736
-2.22904e-10
0.395958
0.000522781
-1.6346e-10
0.395435
0.000522818
-2.27158e-10
0.394912
0.00052285
-1.67256e-10
0.394389
0.000522877
-2.24971e-10
0.393866
0.000522899
-1.55605e-10
0.393343
0.000522918
-2.08599e-10
0.392821
0.000522934
-1.35372e-10
0.392298
0.000522947
-1.88324e-10
0.391775
0.000522958
-1.18341e-10
0.391252
0.000522968
-1.7756e-10
0.390729
0.000522976
-1.25807e-10
0.390206
0.000522983
-1.88824e-10
0.389683
0.000522988
-1.38923e-10
0.38916
0.000522993
-2.27062e-10
0.388637
0.000522997
-1.21559e-10
0.388114
0.000523001
-1.59978e-10
0.387591
0.000523004
-8.87627e-11
0.387068
0.000523006
-1.33446e-10
0.386545
0.000523008
-5.20278e-11
0.386022
0.00052301
-9.40638e-11
0.385499
0.000523011
-1.05719e-11
0.384976
0.000523013
-5.97765e-11
0.384453
0.000523014
1.24415e-11
0.38393
0.000523015
-4.50106e-11
0.383407
0.000523016
2.43463e-11
0.382884
0.000523017
-3.65137e-11
0.382361
0.000523017
2.87538e-11
0.000523018
-3.03603e-11
0.39245
-0.0315935
0.400829
-0.0167527
0.405794
-0.00989839
0.408862
-0.00609331
0.41082
-0.00387234
0.412079
-0.00247732
0.41289
-0.00158954
0.413393
-0.000970967
0.413657
-0.000492394
0.413748
-0.00014779
0.413714
0.000103059
0.413585
0.000287976
0.413391
0.000421969
0.413132
0.00055249
0.412825
0.000646223
0.412484
0.000716827
0.412115
0.000771174
0.411725
0.000812876
0.411318
0.000847618
0.410896
0.000875371
0.410464
0.000897595
0.410022
0.000916191
0.409573
0.000932241
0.409116
0.000945441
0.408655
0.000956313
0.408188
0.000965347
0.407718
0.000972907
0.407245
0.000979259
0.406769
0.000984606
0.406291
0.000989115
0.405811
0.000992916
0.405329
0.000996123
0.404846
0.000998828
0.404362
0.00100111
0.403876
0.00100303
0.40339
0.00100466
0.402904
0.00100603
0.402416
0.00100718
0.401929
0.00100816
0.40144
0.00100898
0.400952
0.00100967
0.400463
0.00101025
0.399974
0.00101075
0.399485
0.00101116
0.398995
0.00101151
0.398506
0.00101181
0.398016
0.00101205
0.397526
0.00101226
0.397036
0.00101244
0.396546
0.00101259
0.396056
0.00101271
0.395566
0.00101282
0.395076
0.00101291
0.394586
0.00101298
0.394096
0.00101305
0.393606
0.0010131
0.393115
0.00101315
0.392625
0.00101318
0.392135
0.00101322
0.391645
0.00101324
0.391154
0.00101326
0.390664
0.00101328
0.390174
0.0010133
0.389683
0.00101331
0.389193
0.00101332
0.388703
0.00101333
0.388212
0.00101334
0.387722
0.00101335
0.387232
0.00101336
0.386741
0.00101336
0.386251
0.00101336
0.38576
0.00101337
0.38527
0.00101337
0.38478
0.00101337
0.384289
0.00101338
0.383799
0.00101338
0.383309
0.00101338
0.382818
0.00101338
0.382328
0.00101338
0.00101338
0.387272
-0.0469725
0.395665
-0.0251461
0.400693
-0.0149266
0.403845
-0.00924455
0.405889
-0.00591655
0.40723
-0.00381904
0.408109
-0.00246847
0.408683
-0.00154484
0.409018
-0.000826795
0.409178
-0.000308047
0.409211
6.9938e-05
0.409148
0.000351426
0.409017
0.000552871
0.408826
0.00074356
0.408587
0.000885144
0.408312
0.000991941
0.408009
0.00107401
0.407685
0.00113669
0.407343
0.00118913
0.406988
0.00123096
0.406621
0.00126437
0.406245
0.00129234
0.405861
0.00131656
0.40547
0.00133644
0.405073
0.0013528
0.404672
0.0013664
0.404267
0.00137777
0.403859
0.00138733
0.403448
0.00139538
0.403035
0.00140216
0.40262
0.00140788
0.402204
0.0014127
0.401786
0.00141677
0.401367
0.0014202
0.400947
0.0014231
0.400526
0.00142554
0.400104
0.0014276
0.399682
0.00142933
0.399259
0.0014308
0.398836
0.00143203
0.398413
0.00143307
0.397989
0.00143395
0.397565
0.00143469
0.397141
0.00143531
0.396717
0.00143584
0.396292
0.00143628
0.395868
0.00143665
0.395443
0.00143697
0.395018
0.00143723
0.394593
0.00143746
0.394168
0.00143764
0.393744
0.0014378
0.393318
0.00143794
0.392893
0.00143805
0.392468
0.00143814
0.392043
0.00143822
0.391618
0.00143829
0.391193
0.00143835
0.390768
0.0014384
0.390343
0.00143844
0.389917
0.00143847
0.389492
0.0014385
0.389067
0.00143852
0.388642
0.00143854
0.388216
0.00143856
0.387791
0.00143857
0.387366
0.00143859
0.386941
0.0014386
0.386515
0.00143861
0.38609
0.00143861
0.385665
0.00143862
0.38524
0.00143862
0.384814
0.00143863
0.384389
0.00143863
0.383964
0.00143864
0.383539
0.00143864
0.383113
0.00143864
0.382688
0.00143864
0.382263
0.00143865
0.00143865
0.379536
-0.0618248
0.387952
-0.0335622
0.393075
-0.0200496
0.39635
-0.0125203
0.398523
-0.00808959
0.399989
-0.00528441
0.400977
-0.00345626
0.401654
-0.00222243
0.402094
-0.00126619
0.402357
-0.000571634
0.402492
-6.49365e-05
0.402528
0.000315248
0.402489
0.000591735
0.4024
0.000832674
0.402261
0.0010239
0.402086
0.00116777
0.401881
0.0012782
0.401656
0.00136194
0.401413
0.00143247
0.401155
0.00148862
0.400886
0.0015333
0.400608
0.0015707
0.400321
0.00160327
0.400028
0.00162993
0.399729
0.00165185
0.399425
0.00167006
0.399117
0.00168529
0.398807
0.00169809
0.398493
0.00170887
0.398177
0.00171795
0.39786
0.00172561
0.39754
0.00173207
0.39722
0.00173751
0.396898
0.0017421
0.396575
0.00174598
0.396251
0.00174924
0.395927
0.00175199
0.395602
0.00175432
0.395276
0.00175627
0.39495
0.00175792
0.394624
0.00175931
0.394298
0.00176049
0.393971
0.00176147
0.393644
0.00176231
0.393317
0.00176301
0.392989
0.0017636
0.392662
0.0017641
0.392334
0.00176452
0.392007
0.00176487
0.391679
0.00176517
0.391351
0.00176542
0.391023
0.00176563
0.390695
0.00176581
0.390368
0.00176596
0.39004
0.00176609
0.389712
0.0017662
0.389384
0.00176629
0.389056
0.00176636
0.388728
0.00176643
0.3884
0.00176648
0.388071
0.00176652
0.387743
0.00176656
0.387415
0.00176659
0.387087
0.00176662
0.386759
0.00176664
0.386431
0.00176666
0.386103
0.00176668
0.385775
0.00176669
0.385447
0.00176671
0.385119
0.00176672
0.384791
0.00176672
0.384462
0.00176673
0.384134
0.00176674
0.383806
0.00176674
0.383478
0.00176675
0.38315
0.00176675
0.382822
0.00176675
0.382494
0.00176676
0.382166
0.00176676
0.00176676
0.369282
-0.0759247
0.377729
-0.0420091
0.382978
-0.0252986
0.386418
-0.0159602
0.388761
-0.0104331
0.390391
-0.00691435
0.391534
-0.00459934
0.392345
-0.0030333
0.392926
-0.00184699
0.393327
-0.000972586
0.393597
-0.000335049
0.393766
0.000146698
0.393855
0.000502228
0.393896
0.000791395
0.393889
0.00103116
0.393844
0.00121255
0.393771
0.00135202
0.393676
0.00145679
0.393562
0.0015459
0.393434
0.00161667
0.393295
0.00167271
0.393146
0.00171963
0.392988
0.00176077
0.392824
0.00179435
0.392654
0.00182191
0.392479
0.0018448
0.392301
0.00186395
0.392119
0.00188005
0.391934
0.00189359
0.391747
0.00190501
0.391558
0.00191463
0.391367
0.00192274
0.391175
0.00192958
0.390982
0.00193535
0.390788
0.00194021
0.390593
0.00194431
0.390397
0.00194777
0.3902
0.00195068
0.390004
0.00195313
0.389806
0.0019552
0.389609
0.00195695
0.389411
0.00195842
0.389213
0.00195965
0.389014
0.0019607
0.388816
0.00196158
0.388617
0.00196232
0.388418
0.00196294
0.388219
0.00196347
0.38802
0.00196391
0.387821
0.00196429
0.387622
0.0019646
0.387422
0.00196487
0.387223
0.00196509
0.387024
0.00196528
0.386825
0.00196543
0.386625
0.00196557
0.386426
0.00196568
0.386226
0.00196577
0.386027
0.00196585
0.385827
0.00196592
0.385628
0.00196598
0.385429
0.00196603
0.385229
0.00196607
0.38503
0.0019661
0.38483
0.00196613
0.384631
0.00196615
0.384431
0.00196617
0.384232
0.00196619
0.384032
0.0019662
0.383833
0.00196622
0.383633
0.00196623
0.383434
0.00196624
0.383234
0.00196624
0.383035
0.00196625
0.382835
0.00196626
0.382636
0.00196626
0.382436
0.00196627
0.382237
0.00196627
0.382037
0.00196627
0.00196628
0.356572
-0.0889912
0.365052
-0.0504886
0.370458
-0.0307043
0.3741
-0.0196024
0.376654
-0.0129877
0.378489
-0.00874856
0.379829
-0.00593927
0.380813
-0.00401766
0.381572
-0.0026056
0.382142
-0.00154332
0.382581
-0.000773417
0.382915
-0.000187292
0.38317
0.000246414
0.383367
0.000595259
0.383525
0.000872462
0.38364
0.00109756
0.383727
0.00126538
0.383793
0.00139044
0.383841
0.00149863
0.383873
0.00158433
0.383894
0.00165179
0.383905
0.00170825
0.383908
0.00175828
0.383903
0.00179893
0.383893
0.00183223
0.383878
0.00185989
0.383859
0.00188303
0.383836
0.00190248
0.383811
0.00191885
0.383783
0.00193264
0.383754
0.00194426
0.383722
0.00195405
0.38369
0.00196231
0.383656
0.00196927
0.383621
0.00197513
0.383585
0.00198008
0.383549
0.00198424
0.383512
0.00198776
0.383474
0.00199071
0.383436
0.00199321
0.383398
0.00199531
0.383359
0.00199708
0.38332
0.00199857
0.383281
0.00199983
0.383242
0.00200089
0.383202
0.00200178
0.383163
0.00200253
0.383123
0.00200316
0.383083
0.00200369
0.383043
0.00200414
0.383003
0.00200452
0.382963
0.00200484
0.382923
0.00200511
0.382883
0.00200533
0.382843
0.00200552
0.382803
0.00200568
0.382763
0.00200582
0.382723
0.00200593
0.382683
0.00200603
0.382642
0.00200611
0.382602
0.00200618
0.382562
0.00200623
0.382522
0.00200628
0.382482
0.00200632
0.382441
0.00200635
0.382401
0.00200638
0.382361
0.00200641
0.382321
0.00200643
0.38228
0.00200645
0.38224
0.00200646
0.3822
0.00200647
0.38216
0.00200648
0.382119
0.00200649
0.382079
0.0020065
0.382039
0.00200651
0.381999
0.00200651
0.381958
0.00200652
0.381918
0.00200652
0.381878
0.00200653
0.00200653
0.341497
-0.100666
0.349997
-0.0589888
0.355586
-0.0362934
0.359465
-0.0234815
0.36227
-0.0157922
0.364346
-0.0108249
0.365917
-0.00751031
0.367128
-0.00522877
0.36809
-0.00356724
0.368871
-0.00232429
0.36951
-0.00141194
0.37004
-0.000718016
0.370492
-0.000205203
0.370885
0.000201649
0.371229
0.000529203
0.371541
0.000785697
0.371815
0.000990618
0.372071
0.00113506
0.372308
0.0012614
0.37253
0.00136204
0.372741
0.00144082
0.372943
0.00150677
0.373135
0.00156604
0.37332
0.00161393
0.373499
0.00165306
0.373673
0.00168558
0.373844
0.00171279
0.37401
0.00173566
0.374174
0.00175491
0.374336
0.00177113
0.374495
0.00178478
0.374653
0.0017963
0.374809
0.001806
0.374965
0.00181417
0.375119
0.00182106
0.375272
0.00182686
0.375424
0.00183175
0.375576
0.00183587
0.375728
0.00183934
0.375879
0.00184226
0.376029
0.00184472
0.376179
0.0018468
0.376329
0.00184855
0.376479
0.00185002
0.376629
0.00185126
0.376778
0.0018523
0.376928
0.00185318
0.377077
0.00185392
0.377226
0.00185454
0.377375
0.00185507
0.377524
0.00185551
0.377673
0.00185588
0.377822
0.00185619
0.377971
0.00185646
0.37812
0.00185668
0.378269
0.00185687
0.378417
0.00185702
0.378566
0.00185715
0.378715
0.00185727
0.378864
0.00185736
0.379012
0.00185744
0.379161
0.00185751
0.37931
0.00185756
0.379459
0.00185761
0.379607
0.00185765
0.379756
0.00185768
0.379905
0.00185771
0.380053
0.00185773
0.380202
0.00185776
0.380351
0.00185777
0.380499
0.00185779
0.380648
0.0018578
0.380797
0.00185781
0.380946
0.00185782
0.381094
0.00185783
0.381243
0.00185783
0.381392
0.00185784
0.38154
0.00185785
0.381689
0.00185785
0.00185786
0.323948
-0.110182
0.332603
-0.067644
0.338426
-0.0421161
0.342579
-0.0276344
0.345675
-0.0188885
0.348035
-0.0131842
0.349875
-0.00935027
0.351345
-0.00669949
0.352558
-0.00477951
0.35358
-0.00334628
0.354462
-0.00229476
0.35522
-0.00147593
0.355897
-0.000881967
0.356514
-0.000415434
0.357084
-4.11218e-05
0.357614
0.000256572
0.358112
0.000491793
0.358589
0.000658867
0.35904
0.000810111
0.359478
0.000924125
0.359906
0.00101246
0.360326
0.00108686
0.360737
0.00115546
0.36114
0.00121077
0.361537
0.00125584
0.361929
0.0012933
0.362317
0.00132468
0.362702
0.00135105
0.363084
0.00137324
0.363463
0.00139193
0.36384
0.00140768
0.364215
0.00142094
0.364589
0.00143212
0.364962
0.00144153
0.365333
0.00144946
0.365704
0.00145614
0.366074
0.00146176
0.366444
0.0014665
0.366812
0.00147049
0.367181
0.00147385
0.367549
0.00147668
0.367917
0.00147906
0.368284
0.00148107
0.368651
0.00148276
0.369018
0.00148418
0.369385
0.00148537
0.369752
0.00148638
0.370119
0.00148723
0.370485
0.00148794
0.370852
0.00148854
0.371218
0.00148905
0.371585
0.00148948
0.371951
0.00148984
0.372317
0.00149014
0.372684
0.00149039
0.37305
0.0014906
0.373416
0.00149078
0.373782
0.00149094
0.374149
0.00149106
0.374515
0.00149117
0.374881
0.00149126
0.375247
0.00149134
0.375613
0.0014914
0.37598
0.00149145
0.376346
0.0014915
0.376712
0.00149154
0.377078
0.00149157
0.377444
0.0014916
0.37781
0.00149162
0.378176
0.00149164
0.378542
0.00149166
0.378909
0.00149167
0.379275
0.00149168
0.379641
0.00149169
0.380007
0.0014917
0.380373
0.00149171
0.380739
0.00149172
0.381105
0.00149172
0.381471
0.00149173
0.00149174
0.305886
-0.116383
0.312972
-0.07473
0.319151
-0.0482945
0.323642
-0.0321257
0.327041
-0.0222873
0.32969
-0.0158337
0.331811
-0.0114714
0.333552
-0.00844023
0.335028
-0.00625545
0.336318
-0.00463678
0.337458
-0.0034346
0.338494
-0.00251208
0.339446
-0.00183353
0.340328
-0.00129739
0.341155
-0.000868664
0.341944
-0.000531796
0.342701
-0.000265383
0.343423
-6.30142e-05
0.344123
0.000109986
0.344808
0.000238968
0.345481
0.000339501
0.346143
0.000425098
0.346794
0.000504007
0.347441
0.000564576
0.348082
0.000614532
0.348719
0.000656485
0.349352
0.00069183
0.349981
0.00072163
0.350607
0.000746758
0.351231
0.00076794
0.351853
0.000785794
0.352473
0.000800838
0.353092
0.00081351
0.353709
0.000824185
0.354326
0.000833175
0.354941
0.000840745
0.355556
0.000847118
0.35617
0.000852484
0.356783
0.000857002
0.357396
0.000860804
0.358009
0.000864006
0.358621
0.000866699
0.359233
0.000868967
0.359845
0.000870875
0.360457
0.000872482
0.361068
0.000873834
0.36168
0.000874971
0.362291
0.000875928
0.362902
0.000876734
0.363514
0.000877411
0.364125
0.000877982
0.364736
0.000878462
0.365347
0.000878866
0.365958
0.000879205
0.366568
0.000879491
0.367179
0.000879732
0.36779
0.000879934
0.368401
0.000880105
0.369012
0.000880248
0.369623
0.000880369
0.370233
0.00088047
0.370844
0.000880555
0.371455
0.000880627
0.372066
0.000880687
0.372676
0.000880738
0.373287
0.000880782
0.373898
0.000880818
0.374509
0.000880848
0.375119
0.000880874
0.37573
0.000880896
0.376341
0.000880915
0.376952
0.000880931
0.377562
0.000880944
0.378173
0.000880956
0.378784
0.000880966
0.379395
0.000880975
0.380005
0.000880983
0.380616
0.00088099
0.381227
0.000880997
0.000881003
0.284772
-0.11562
0.291155
-0.081113
0.296497
-0.0536366
0.301602
-0.0372305
0.305641
-0.0263269
0.308841
-0.0190336
0.311436
-0.014066
0.313596
-0.0106005
0.315452
-0.00811112
0.317092
-0.00627729
0.318569
-0.00491105
0.319928
-0.00387091
0.32118
-0.00308574
0.322357
-0.00247491
0.323481
-0.00199221
0.32456
-0.00161084
0.325603
-0.00130895
0.326614
-0.00107383
0.327604
-0.000880046
0.328572
-0.000729167
0.32952
-0.000608242
0.330453
-0.000508145
0.33138
-0.000422726
0.3323
-0.000354871
0.333213
-0.000298771
0.334121
-0.000251679
0.335025
-0.000212002
0.335925
-0.000178551
0.336822
-0.000150351
0.337717
-0.000126584
0.338609
-0.00010656
0.3395
-8.96928e-05
0.340389
-7.54882e-05
0.341276
-6.35282e-05
0.342163
-5.34594e-05
0.343049
-4.49838e-05
0.343934
-3.78501e-05
0.344818
-3.18463e-05
0.345702
-2.67938e-05
0.346585
-2.25421e-05
0.347468
-1.89645e-05
0.348351
-1.59543e-05
0.349233
-1.34215e-05
0.350115
-1.12905e-05
0.350997
-9.49765e-06
0.351879
-7.98932e-06
0.352761
-6.72035e-06
0.353642
-5.65284e-06
0.354524
-4.75478e-06
0.355405
-3.99936e-06
0.356287
-3.36388e-06
0.357168
-2.82936e-06
0.358049
-2.37972e-06
0.35893
-2.00154e-06
0.359812
-1.6834e-06
0.360693
-1.41581e-06
0.361574
-1.1907e-06
0.362455
-1.00136e-06
0.363336
-8.42048e-07
0.364217
-7.08063e-07
0.365098
-5.95326e-07
0.365979
-5.00528e-07
0.36686
-4.20774e-07
0.367741
-3.53717e-07
0.368622
-2.97113e-07
0.369503
-2.49118e-07
0.370384
-2.08815e-07
0.371265
-1.74911e-07
0.372146
-1.46294e-07
0.373027
-1.22104e-07
0.373908
-1.01563e-07
0.37479
-8.40806e-08
0.375671
-6.90991e-08
0.376552
-5.62028e-08
0.377433
-4.49736e-08
0.378314
-3.51018e-08
0.379195
-2.62604e-08
0.380076
-1.82156e-08
0.380957
-1.07052e-08
-3.51219e-09
1.06375
-0.098072
-1.08129
1.05422
-0.071587
1.05268
-0.0521014
1.05359
-0.0381402
1.0554
-0.0281293
1.05737
-0.0210057
1.05921
-0.0159028
1.06081
-0.0122012
1.06217
-0.00947027
1.06331
-0.0074222
1.06427
-0.00586819
1.06507
-0.00467333
1.06573
-0.00375093
1.06629
-0.00302743
1.06675
-0.00245388
1.06714
-0.00199736
1.06746
-0.00163275
1.06773
-0.00134188
1.06795
-0.00110566
1.06814
-0.000916196
1.06829
-0.000762564
1.06842
-0.000636063
1.06853
-0.000530553
1.06862
-0.000444439
1.06869
-0.000373161
1.06876
-0.00031368
1.06881
-0.000263836
1.06885
-0.00022198
1.06889
-0.000186793
1.06892
-0.000157196
1.06894
-0.000132294
1.06897
-0.000111339
1.06898
-9.37022e-05
1.069
-7.88588e-05
1.06901
-6.63658e-05
1.06902
-5.58509e-05
1.06903
-4.7001e-05
1.06904
-3.95527e-05
1.06905
-3.32839e-05
1.06905
-2.80081e-05
1.06906
-2.3568e-05
1.06906
-1.98313e-05
1.06906
-1.66867e-05
1.06907
-1.40404e-05
1.06907
-1.18136e-05
1.06907
-9.93963e-06
1.06907
-8.36277e-06
1.06907
-7.03591e-06
1.06907
-5.91944e-06
1.06908
-4.98004e-06
1.06908
-4.18964e-06
1.06908
-3.52461e-06
1.06908
-2.96509e-06
1.06908
-2.49434e-06
1.06908
-2.09827e-06
1.06908
-1.76504e-06
1.06908
-1.48467e-06
1.06908
-1.24878e-06
1.06908
-1.0503e-06
1.06908
-8.83305e-07
1.06908
-7.42792e-07
1.06908
-6.24562e-07
1.06908
-5.25074e-07
1.06908
-4.4134e-07
1.06908
-3.70747e-07
1.06908
-3.11076e-07
1.06908
-2.60851e-07
1.06908
-2.1852e-07
1.06908
-1.82784e-07
1.06908
-1.52545e-07
1.06908
-1.26889e-07
1.06908
-1.05033e-07
1.06908
-8.63258e-08
1.06908
-7.0201e-08
1.06908
-5.61799e-08
1.06908
-4.38353e-08
1.06908
-3.28021e-08
1.06908
-2.27455e-08
1.06908
-1.33728e-08
-4.38398e-09
1.07615
-0.0775413
-1.09668
1.0656
-0.0610378
1.06123
-0.0477328
1.05982
-0.0367364
1.0599
-0.028207
1.06063
-0.0217352
1.06159
-0.016862
1.06258
-0.013186
1.0635
-0.0103926
1.06433
-0.00825023
1.06505
-0.00659324
1.06568
-0.00530031
1.06621
-0.00428544
1.06667
-0.00348124
1.06705
-0.00283899
1.06738
-0.00232357
1.06765
-0.00190843
1.06788
-0.00157331
1.06808
-0.00130074
1.06824
-0.00107932
1.06838
-0.000898431
1.06849
-0.000749463
1.06859
-0.000626008
1.06867
-0.000524139
1.06873
-0.00043964
1.06879
-0.000369213
1.06884
-0.000310312
1.06887
-0.00026094
1.06891
-0.000219496
1.06893
-0.000184675
1.06896
-0.0001554
1.06898
-0.000130778
1.06899
-0.000110064
1.06901
-9.26342e-05
1.06902
-7.79663e-05
1.06903
-6.56214e-05
1.06904
-5.52311e-05
1.06904
-4.64858e-05
1.06905
-3.91247e-05
1.06905
-3.29288e-05
1.06906
-2.77136e-05
1.06906
-2.33239e-05
1.06907
-1.96292e-05
1.06907
-1.65193e-05
1.06907
-1.39019e-05
1.06907
-1.16989e-05
1.06907
-9.84478e-06
1.06907
-8.28433e-06
1.06908
-6.97105e-06
1.06908
-5.86583e-06
1.06908
-4.93572e-06
1.06908
-4.153e-06
1.06908
-3.49433e-06
1.06908
-2.94004e-06
1.06908
-2.47361e-06
1.06908
-2.0811e-06
1.06908
-1.75081e-06
1.06908
-1.47286e-06
1.06908
-1.23896e-06
1.06908
-1.04212e-06
1.06908
-8.76463e-07
1.06908
-7.3704e-07
1.06908
-6.19683e-07
1.06908
-5.20866e-07
1.06908
-4.37589e-07
1.06908
-3.67322e-07
1.06908
-3.081e-07
1.06908
-2.58142e-07
1.06908
-2.15946e-07
1.06908
-1.8023e-07
1.06908
-1.49922e-07
1.06908
-1.24102e-07
1.06908
-1.02e-07
1.06908
-8.29477e-08
1.06908
-6.63802e-08
1.06908
-5.17933e-08
1.06908
-3.87572e-08
1.06908
-2.68754e-08
1.06908
-1.58011e-08
-5.18604e-09
1.08369
-0.0596241
-1.10161
1.07331
-0.0506522
1.06766
-0.0420891
1.06488
-0.0339567
1.06376
-0.0270841
1.06354
-0.021517
1.06378
-0.017106
1.06424
-0.0136417
1.06477
-0.0109245
1.06531
-0.00878774
1.06582
-0.00710057
1.06628
-0.00576176
1.06669
-0.00469453
1.06705
-0.00383877
1.06736
-0.00314887
1.06762
-0.00259042
1.06785
-0.00213691
1.06805
-0.00176765
1.06821
-0.00146575
1.06835
-0.00121858
1.06847
-0.00101547
1.06856
-0.000847787
1.06865
-0.000708812
1.06872
-0.000593609
1.06878
-0.000497835
1.06882
-0.000417966
1.06886
-0.000351188
1.0689
-0.000295244
1.06893
-0.000248311
1.06895
-0.000208897
1.06897
-0.000175774
1.06899
-0.000147924
1.069
-0.000124498
1.06902
-0.000104788
1.06903
-8.82024e-05
1.06904
-7.42438e-05
1.06904
-6.24949e-05
1.06905
-5.26054e-05
1.06905
-4.42806e-05
1.06906
-3.72729e-05
1.06906
-3.13737e-05
1.06906
-2.64078e-05
1.06907
-2.22274e-05
1.06907
-1.87085e-05
1.06907
-1.57463e-05
1.06907
-1.32528e-05
1.06907
-1.11539e-05
1.06908
-9.38714e-06
1.06908
-7.90007e-06
1.06908
-6.64841e-06
1.06908
-5.59492e-06
1.06908
-4.70825e-06
1.06908
-3.96199e-06
1.06908
-3.33392e-06
1.06908
-2.80532e-06
1.06908
-2.36045e-06
1.06908
-1.98604e-06
1.06908
-1.67093e-06
1.06908
-1.40572e-06
1.06908
-1.18251e-06
1.06908
-9.94629e-07
1.06908
-8.36478e-07
1.06908
-7.03333e-07
1.06908
-5.91203e-07
1.06908
-4.9672e-07
1.06908
-4.17046e-07
1.06908
-3.49864e-07
1.06908
-2.9317e-07
1.06908
-2.45267e-07
1.06908
-2.04713e-07
1.06908
-1.70292e-07
1.06908
-1.40968e-07
1.06908
-1.15864e-07
1.06908
-9.42233e-08
1.06908
-7.54025e-08
1.06908
-5.88339e-08
1.06908
-4.40249e-08
1.06908
-3.05295e-08
1.06908
-1.79488e-08
-5.8945e-09
1.08734
-0.0457023
-1.10127
1.07815
-0.0414589
1.07234
-0.0362769
1.06892
-0.0305388
1.06706
-0.0252264
1.06617
-0.020627
1.06586
-0.0167906
1.06587
-0.0136522
1.06605
-0.011109
1.06632
-0.00905565
1.06662
-0.00739888
1.06692
-0.00606039
1.0672
-0.0049768
1.06746
-0.00409687
1.06769
-0.00338004
1.06789
-0.00279449
1.06807
-0.00231506
1.06823
-0.00192169
1.06836
-0.00159813
1.06847
-0.00133155
1.06857
-0.00111136
1.06865
-0.000928954
1.06872
-0.000777467
1.06877
-0.0006515
1.06882
-0.000546547
1.06886
-0.000458916
1.0689
-0.000385608
1.06893
-0.000324182
1.06895
-0.00027265
1.06897
-0.000229376
1.06899
-0.000193011
1.069
-0.000162436
1.06902
-0.00013672
1.06903
-0.000115084
1.06903
-9.68761e-05
1.06904
-8.15518e-05
1.06905
-6.86528e-05
1.06905
-5.77944e-05
1.06906
-4.86533e-05
1.06906
-4.09578e-05
1.06906
-3.4479e-05
1.06907
-2.90245e-05
1.06907
-2.44325e-05
1.06907
-2.05666e-05
1.06907
-1.7312e-05
1.06907
-1.4572e-05
1.06908
-1.22654e-05
1.06908
-1.03237e-05
1.06908
-8.68914e-06
1.06908
-7.31319e-06
1.06908
-6.15496e-06
1.06908
-5.18003e-06
1.06908
-4.3594e-06
1.06908
-3.66867e-06
1.06908
-3.08727e-06
1.06908
-2.59791e-06
1.06908
-2.18603e-06
1.06908
-1.83934e-06
1.06908
-1.54753e-06
1.06908
-1.3019e-06
1.06908
-1.09513e-06
1.06908
-9.21063e-07
1.06908
-7.74498e-07
1.06908
-6.51056e-07
1.06908
-5.47045e-07
1.06908
-4.59356e-07
1.06908
-3.85401e-07
1.06908
-3.22977e-07
1.06908
-2.70221e-07
1.06908
-2.25552e-07
1.06908
-1.87634e-07
1.06908
-1.55328e-07
1.06908
-1.27668e-07
1.06908
-1.03825e-07
1.06908
-8.30859e-08
1.06908
-6.48297e-08
1.06908
-4.85112e-08
1.06908
-3.36414e-08
1.06908
-1.97784e-08
-6.49703e-09
1.08875
-0.035194
-1.09926
1.08102
-0.0337277
1.07558
-0.0308389
1.072
-0.0269578
1.06976
-0.0229872
1.06844
-0.0193049
1.06772
-0.0160698
1.06738
-0.0133124
1.06728
-0.011003
1.06731
-0.00908765
1.06742
-0.00750745
1.06756
-0.00620697
1.06772
-0.00513751
1.06788
-0.0042576
1.06804
-0.00353289
1.06818
-0.00293529
1.06831
-0.00244192
1.06842
-0.00203413
1.06852
-0.00169659
1.0686
-0.00141688
1.06867
-0.00118473
1.06874
-0.000991707
1.06879
-0.000830943
1.06884
-0.00069689
1.06887
-0.000584954
1.06891
-0.000491348
1.06893
-0.000412961
1.06896
-0.000347238
1.06898
-0.000292079
1.06899
-0.000245748
1.06901
-0.000206807
1.06902
-0.000174063
1.06903
-0.000146519
1.06904
-0.000123342
1.06904
-0.000103837
1.06905
-8.74194e-05
1.06905
-7.35987e-05
1.06906
-6.19635e-05
1.06906
-5.21676e-05
1.06907
-4.392e-05
1.06907
-3.69758e-05
1.06907
-3.11291e-05
1.06907
-2.62063e-05
1.06907
-2.20616e-05
1.06907
-1.8572e-05
1.06908
-1.56339e-05
1.06908
-1.31603e-05
1.06908
-1.10778e-05
1.06908
-9.32462e-06
1.06908
-7.84866e-06
1.06908
-6.60614e-06
1.06908
-5.56017e-06
1.06908
-4.67967e-06
1.06908
-3.93848e-06
1.06908
-3.31456e-06
1.06908
-2.78937e-06
1.06908
-2.34729e-06
1.06908
-1.97516e-06
1.06908
-1.66191e-06
1.06908
-1.39821e-06
1.06908
-1.17622e-06
1.06908
-9.89315e-07
1.06908
-8.3193e-07
1.06908
-6.99368e-07
1.06908
-5.87672e-07
1.06908
-4.9351e-07
1.06908
-4.14088e-07
1.06908
-3.47042e-07
1.06908
-2.90371e-07
1.06908
-2.42382e-07
1.06908
-2.0164e-07
1.06908
-1.66927e-07
1.06908
-1.37204e-07
1.06908
-1.11581e-07
1.06908
-8.92938e-08
1.06908
-6.96742e-08
1.06908
-5.21364e-08
1.06908