/*--------------------------------*- C++ -*----------------------------------*\
  =========                 |
  \\      /  F ield         | OpenFOAM: The Open Source CFD Toolbox
   \\    /   O peration     | Website:  https://openfoam.org
    \\  /    A nd           | Version:  10
     \\/     M anipulation  |
\*---------------------------------------------------------------------------*/
FoamFile
{
    format      ascii;
    class       surfaceScalarField;
    location    "2.64e-05";
    object      phi_0;
}
// * * * * * * * * * * * * * * * * * * * * * * * * * * * * * * * * * * * * * //

dimensions      [0 3 -1 0 0 0 0];

internalField   nonuniform List<scalar> 
14980
(
0.0357224
-0.503782
0.468059
0.0661997
-0.436656
0.406179
0.0939152
-0.397106
0.369391
0.119739
-0.370304
0.344479
0.14422
-0.351482
0.327001
0.167687
-0.337773
0.314306
0.190296
-0.327505
0.304897
0.211955
-0.31962
0.297961
0.231824
-0.31336
0.293491
-0.307674
0.290578
0.248919
0.0324954
-0.536277
0.0603608
-0.464522
0.0856458
-0.422391
0.109184
-0.393842
0.131482
-0.37378
0.152843
-0.359134
0.173436
-0.348099
0.193336
-0.33952
0.212544
-0.332568
-0.326628
0.231498
0.0291227
-0.5654
0.0541628
-0.489562
0.0768595
-0.445088
0.0979769
-0.41496
0.117978
-0.393781
0.137149
-0.378305
0.155679
-0.366629
0.173719
-0.35756
0.191453
-0.350302
-0.344475
0.209301
0.0256061
-0.591006
0.0476493
-0.511605
0.0676155
-0.465054
0.0861859
-0.43353
0.103776
-0.411371
0.120649
-0.395178
0.136988
-0.382968
0.15294
-0.373511
0.168641
-0.366003
-0.360102
0.184268
0.0219581
-0.612964
0.0408611
-0.530508
0.057971
-0.482164
0.0738803
-0.449439
0.0889523
-0.426443
0.103419
-0.409645
0.117442
-0.396991
0.131144
-0.387213
0.144623
-0.379482
-0.373444
0.157965
0.018198
-0.631162
0.0338402
-0.54615
0.0479845
-0.496308
0.0611322
-0.462587
0.0735892
-0.4389
0.0855511
-0.421606
0.0971518
-0.408592
0.108489
-0.398551
0.119633
-0.390626
-0.384451
0.13064
0.0143507
-0.645513
0.0266307
-0.55843
0.0377168
-0.507395
0.048017
-0.472887
0.0577769
-0.44866
0.0671515
-0.430981
0.0762455
-0.417686
0.0851327
-0.407438
0.0938643
-0.399358
-0.393067
0.10248
0.0104465
-0.655959
0.0192783
-0.567262
0.0272299
-0.515346
0.0346134
-0.480271
0.0416104
-0.455657
0.0483331
-0.437704
0.0548561
-0.424209
0.0612308
-0.413812
0.0674923
-0.405619
-0.399244
0.0736687
0.00652361
-0.662483
0.0118303
-0.572569
0.016587
-0.520103
0.0210019
-0.484686
0.025188
-0.459843
0.0292124
-0.441728
0.0331192
-0.428115
0.0369382
-0.417631
0.0406897
-0.409371
-0.402944
0.0443901
0.00262983
-0.665113
0.00433308
-0.574272
0.00585047
-0.52162
0.0072637
-0.486099
0.00860969
-0.461189
0.00990821
-0.443027
0.0111721
-0.429379
0.01241
-0.418869
0.0136278
-0.410589
0.0148303
-0.404147
0.0521381
-0.0521381
1.24093e-08
0.0973314
-0.0451933
1.07028e-08
0.13835
-0.041019
9.41431e-09
0.176604
-0.0382535
8.39652e-09
0.212938
-0.0363343
7.43139e-09
0.247894
-0.0349556
6.49579e-09
0.281837
-0.033943
5.67756e-09
0.315028
-0.0331912
4.85583e-09
0.347657
-0.0326291
4.20857e-09
-0.0322473
0.379904
3.55576e-09
0.0517983
-0.103936
0.0966671
-0.0900622
0.137434
-0.0817855
0.175453
-0.0762728
0.21156
-0.0724417
0.24629
-0.0696857
0.280005
-0.067658
0.312963
-0.0661489
0.345352
-0.0650179
-0.0642467
0.377351
0.0511297
-0.155066
0.0954136
-0.134346
0.135667
-0.122039
0.173208
-0.113813
0.208854
-0.108088
0.243128
-0.10396
0.276384
-0.100914
0.308873
-0.0986372
0.340778
-0.0969229
-0.095746
0.372277
0.0501415
-0.205208
0.093571
-0.177776
0.133059
-0.161527
0.169884
-0.150639
0.204843
-0.143046
0.23844
-0.137558
0.271016
-0.133489
0.302808
-0.130429
0.333993
-0.128108
-0.126496
0.364742
0.0488384
-0.254046
0.0911479
-0.220085
0.129626
-0.200005
0.165508
-0.186521
0.199562
-0.1771
0.232274
-0.17027
0.263964
-0.165179
0.294851
-0.161316
0.325092
-0.158349
-0.156249
0.354846
0.0472263
-0.301272
0.0881565
-0.261015
0.125389
-0.237237
0.160109
-0.221241
0.193056
-0.210046
0.224691
-0.201905
0.255314
-0.195803
0.285115
-0.191117
0.314214
-0.187448
-0.18476
0.342724
0.0453111
-0.346583
0.0846128
-0.300317
0.120374
-0.272999
0.153726
-0.254592
0.185372
-0.241693
0.215759
-0.232292
0.245165
-0.225209
0.273749
-0.2197
0.301565
-0.215264
-0.211757
0.328563
0.0430981
-0.389682
0.0805347
-0.337754
0.114612
-0.307076
0.146395
-0.286375
0.176559
-0.271857
0.205538
-0.261271
0.233613
-0.253285
0.260932
-0.24702
0.287476
-0.241808
-0.236935
0.312654
0.0405898
-0.430271
0.0759433
-0.373107
0.108136
-0.339269
0.138159
-0.316399
0.166659
-0.300356
0.194068
-0.28868
0.220712
-0.279929
0.24687
-0.273178
0.272811
-0.267749
-0.262435
0.298311
0.0377881
0.0708601
0.100982
0.129063
0.155707
0.181334
0.206301
0.231085
0.256828
0.284971
0.395506
-0.0156013
8.88784e-09
0.403837
-0.00833098
1.82641e-09
0.408656
-0.00481954
-1.97761e-09
0.411572
-0.00291552
-4.25651e-09
0.413397
-0.00182482
-3.86443e-09
0.41455
-0.00115298
-3.68159e-09
0.415264
-0.000714489
-2.88168e-09
0.415679
-0.000414473
-2.56e-09
0.41588
-0.000201446
-2.11778e-09
0.415926
-4.56641e-05
-1.93803e-09
0.415855
7.09848e-05
-1.74752e-09
0.415695
0.000160034
-1.6312e-09
0.415466
0.000229105
-1.54909e-09
0.415182
0.000283396
-1.43514e-09
0.414856
0.000326548
-1.38767e-09
0.414494
0.000361168
-1.25834e-09
0.414105
0.000389163
-1.22971e-09
0.413693
0.000411953
-1.08637e-09
0.413263
0.000430611
-1.07401e-09
0.412817
0.00044596
-9.23721e-10
0.412358
0.000458637
-9.32657e-10
0.411889
0.000469143
-7.78743e-10
0.411411
0.000477875
-8.00981e-10
0.410926
0.00048515
-6.4426e-10
0.410435
0.000491224
-6.78405e-10
0.409938
0.000496304
-5.17109e-10
0.409438
0.000500558
-5.52211e-10
0.408934
0.000504125
-3.87533e-10
0.408427
0.000507119
-4.28043e-10
0.407917
0.000509634
-2.61438e-10
0.407405
0.000511748
-3.01047e-10
0.406892
0.000513527
-1.34714e-10
0.406377
0.000515023
-1.79292e-10
0.40586
0.000516283
-1.34068e-11
0.405343
0.000517343
-5.55894e-11
0.404825
0.000518237
1.06856e-10
0.404306
0.000518989
5.69807e-11
0.403786
0.000519623
2.12383e-10
0.403266
0.000520157
1.56814e-10
0.402745
0.000520608
3.00545e-10
0.402224
0.000520987
2.26806e-10
0.401703
0.000521307
3.56632e-10
0.401182
0.000521576
2.67435e-10
0.40066
0.000521803
3.8084e-10
0.400138
0.000521995
2.6376e-10
0.399616
0.000522156
3.63024e-10
0.399093
0.000522292
2.30676e-10
0.398571
0.000522407
3.24596e-10
0.398048
0.000522503
1.94654e-10
0.397526
0.000522584
2.96183e-10
0.397003
0.000522653
2.02088e-10
0.39648
0.00052271
3.0858e-10
0.395958
0.000522759
2.2352e-10
0.395435
0.0005228
3.24817e-10
0.394912
0.000522835
2.38434e-10
0.394389
0.000522864
3.30203e-10
0.393866
0.000522888
2.28394e-10
0.393343
0.000522909
3.13188e-10
0.39282
0.000522926
2.04097e-10
0.392298
0.000522941
2.88859e-10
0.391775
0.000522953
1.83663e-10
0.391252
0.000522963
2.77416e-10
0.390729
0.000522972
2.00064e-10
0.390206
0.000522979
2.98546e-10
0.389683
0.000522985
2.20161e-10
0.38916
0.000522991
2.8756e-10
0.388637
0.000522995
1.956e-10
0.388114
0.000522999
2.74618e-10
0.387591
0.000523002
1.57812e-10
0.387068
0.000523006
2.23881e-10
0.386545
0.000523007
9.13136e-11
0.386022
0.000523009
1.56109e-10
0.385499
0.000523011
2.28033e-11
0.384976
0.000523012
9.77459e-11
0.384453
0.000523014
-1.35109e-11
0.38393
0.000523015
7.16614e-11
0.383407
0.000523016
-3.47112e-11
0.382884
0.000523017
5.73463e-11
0.382361
0.000523017
-4.15417e-11
0.000523018
5.64224e-11
0.392855
-0.031105
0.401208
-0.0166837
0.406068
-0.0096795
0.409028
-0.00587612
0.410898
-0.0036946
0.412094
-0.00234905
0.41285
-0.00146998
0.413303
-0.000868134
0.413543
-0.000440632
0.413625
-0.000127946
0.41359
0.000106215
0.413465
0.000284977
0.41327
0.000423632
0.413021
0.000532614
0.412728
0.000619228
0.412401
0.000688712
0.412045
0.000744897
0.411666
0.000790632
0.411269
0.000828071
0.410856
0.000858865
0.41043
0.000884298
0.409994
0.000905373
0.409549
0.000922888
0.409097
0.00093748
0.408638
0.000949661
0.408175
0.000959846
0.407707
0.000968376
0.407236
0.000975528
0.406761
0.00098153
0.406284
0.000986572
0.405805
0.000990809
0.405324
0.000994373
0.404842
0.000997372
0.404358
0.000999895
0.403874
0.00100202
0.403388
0.00100381
0.402902
0.00100532
0.402415
0.00100659
0.401927
0.00100766
0.401439
0.00100856
0.400951
0.00100932
0.400462
0.00100996
0.399973
0.0010105
0.399484
0.00101095
0.398995
0.00101134
0.398505
0.00101166
0.398016
0.00101193
0.397526
0.00101216
0.397036
0.00101235
0.396546
0.00101252
0.396056
0.00101265
0.395566
0.00101277
0.395076
0.00101287
0.394586
0.00101295
0.394096
0.00101302
0.393606
0.00101308
0.393115
0.00101313
0.392625
0.00101317
0.392135
0.0010132
0.391645
0.00101323
0.391154
0.00101325
0.390664
0.00101328
0.390174
0.00101329
0.389683
0.00101331
0.389193
0.00101332
0.388703
0.00101333
0.388212
0.00101334
0.387722
0.00101335
0.387232
0.00101335
0.386741
0.00101336
0.386251
0.00101336
0.38576
0.00101337
0.38527
0.00101337
0.38478
0.00101337
0.384289
0.00101338
0.383799
0.00101338
0.383309
0.00101338
0.382818
0.00101338
0.382328
0.00101338
0.00101338
0.387573
-0.0464014
0.395967
-0.0250775
0.400907
-0.0146191
0.403957
-0.00892623
0.405916
-0.00565404
0.407198
-0.00363115
0.408036
-0.00230734
0.408567
-0.00140004
0.408882
-0.000755161
0.409037
-0.000283315
0.409074
7.00951e-05
0.409019
0.000339906
0.408893
0.00054918
0.408712
0.000713654
0.408487
0.000844359
0.408226
0.000949203
0.407937
0.00103397
0.407625
0.00110296
0.407294
0.00115942
0.406947
0.00120586
0.406587
0.00124421
0.406216
0.00127598
0.405837
0.00130238
0.40545
0.00132437
0.405057
0.00134272
0.404658
0.00135807
0.404256
0.00137092
0.40385
0.00138169
0.403441
0.00139073
0.403029
0.00139832
0.402615
0.0014047
0.402199
0.00141006
0.401782
0.00141457
0.401364
0.00141837
0.400944
0.00142157
0.400524
0.00142426
0.400102
0.00142653
0.399681
0.00142844
0.399258
0.00143005
0.398835
0.0014314
0.398412
0.00143254
0.397989
0.00143351
0.397565
0.00143432
0.397141
0.001435
0.396716
0.00143558
0.396292
0.00143606
0.395867
0.00143647
0.395443
0.00143681
0.395018
0.0014371
0.394593
0.00143735
0.394168
0.00143755
0.393743
0.00143773
0.393318
0.00143787
0.392893
0.001438
0.392468
0.0014381
0.392043
0.00143819
0.391618
0.00143826
0.391193
0.00143832
0.390768
0.00143837
0.390342
0.00143842
0.389917
0.00143845
0.389492
0.00143849
0.389067
0.00143851
0.388642
0.00143853
0.388216
0.00143855
0.387791
0.00143857
0.387366
0.00143858
0.386941
0.00143859
0.386515
0.0014386
0.38609
0.00143861
0.385665
0.00143862
0.38524
0.00143862
0.384814
0.00143863
0.384389
0.00143863
0.383964
0.00143864
0.383539
0.00143864
0.383113
0.00143864
0.382688
0.00143864
0.382263
0.00143865
0.00143865
0.379698
-0.0613565
0.388147
-0.0335272
0.393203
-0.019675
0.396386
-0.0121089
0.398479
-0.00774731
0.39989
-0.00504194
0.40085
-0.00326722
0.401499
-0.00204903
0.401926
-0.00118238
0.402191
-0.000547953
0.402333
-7.26613e-05
0.402383
0.000290229
0.402361
0.00057169
0.402281
0.000792878
0.402157
0.000968628
0.401997
0.00110958
0.401807
0.00122352
0.401594
0.00131623
0.401361
0.0013921
0.401113
0.00145448
0.400851
0.00150598
0.400578
0.00154864
0.400296
0.00158408
0.400007
0.00161359
0.399712
0.00163822
0.399411
0.00165881
0.399106
0.00167604
0.398797
0.00169048
0.398485
0.0017026
0.398171
0.00171277
0.397854
0.00172132
0.397536
0.00172851
0.397216
0.00173455
0.396894
0.00173964
0.396572
0.00174392
0.396249
0.00174752
0.395925
0.00175056
0.3956
0.00175311
0.395275
0.00175527
0.394949
0.00175708
0.394623
0.00175861
0.394297
0.00175989
0.39397
0.00176098
0.393643
0.00176189
0.393316
0.00176266
0.392989
0.00176331
0.392661
0.00176385
0.392334
0.00176431
0.392006
0.0017647
0.391679
0.00176503
0.391351
0.0017653
0.391023
0.00176553
0.390695
0.00176573
0.390367
0.00176589
0.390039
0.00176603
0.389712
0.00176615
0.389384
0.00176624
0.389056
0.00176633
0.388728
0.0017664
0.388399
0.00176646
0.388071
0.0017665
0.387743
0.00176655
0.387415
0.00176658
0.387087
0.00176661
0.386759
0.00176663
0.386431
0.00176666
0.386103
0.00176667
0.385775
0.00176669
0.385447
0.0017667
0.385119
0.00176671
0.384791
0.00176672
0.384462
0.00176673
0.384134
0.00176673
0.383806
0.00176674
0.383478
0.00176675
0.38315
0.00176675
0.382822
0.00176675
0.382494
0.00176676
0.382166
0.00176676
0.00176676
0.369286
-0.075797
0.377799
-0.0420399
0.383004
-0.0248802
0.38636
-0.0154651
0.388631
-0.0100177
0.390212
-0.00662363
0.391335
-0.00438993
0.39214
-0.00285356
0.392716
-0.00175924
0.393126
-0.000957623
0.39341
-0.000356883
0.393599
0.000101838
0.393713
0.000457615
0.393769
0.000737173
0.393778
0.000959264
0.39375
0.00113734
0.393692
0.00128126
0.39361
0.00139833
0.393508
0.00149411
0.39339
0.00157284
0.393258
0.00163782
0.393115
0.00169163
0.392963
0.00173632
0.392803
0.00177353
0.392637
0.00180456
0.392465
0.0018305
0.392289
0.00185221
0.392109
0.00187039
0.391926
0.00188564
0.39174
0.00189845
0.391552
0.0019092
0.391362
0.00191824
0.391171
0.00192584
0.390979
0.00193224
0.390785
0.00193762
0.39059
0.00194214
0.390395
0.00194595
0.390199
0.00194916
0.390002
0.00195187
0.389805
0.00195414
0.389608
0.00195606
0.38941
0.00195767
0.389212
0.00195903
0.389014
0.00196018
0.388815
0.00196114
0.388616
0.00196195
0.388418
0.00196264
0.388219
0.00196321
0.38802
0.0019637
0.387821
0.00196411
0.387622
0.00196445
0.387422
0.00196474
0.387223
0.00196498
0.387024
0.00196519
0.386824
0.00196536
0.386625
0.00196551
0.386426
0.00196563
0.386226
0.00196573
0.386027
0.00196582
0.385827
0.00196589
0.385628
0.00196595
0.385429
0.00196601
0.385229
0.00196605
0.38503
0.00196609
0.38483
0.00196612
0.384631
0.00196614
0.384431
0.00196616
0.384232
0.00196618
0.384032
0.0019662
0.383833
0.00196621
0.383633
0.00196622
0.383434
0.00196623
0.383234
0.00196624
0.383035
0.00196625
0.382835
0.00196625
0.382636
0.00196626
0.382436
0.00196626
0.382237
0.00196627
0.382037
0.00196627
0.00196628
0.356417
-0.08949
0.364988
-0.0506113
0.370371
-0.0302624
0.373938
-0.0190326
0.376428
-0.0125073
0.378222
-0.00841785
0.379547
-0.00571533
0.380545
-0.00385167
0.381308
-0.00252221
0.381898
-0.00154754
0.382358
-0.000816805
0.382719
-0.000258739
0.383002
0.000174077
0.383225
0.000514124
0.3834
0.000784214
0.383537
0.00100072
0.383643
0.00117564
0.383723
0.0013179
0.383783
0.00143424
0.383826
0.00152984
0.383855
0.00160871
0.383873
0.001674
0.383881
0.00172821
0.383881
0.00177332
0.383875
0.00181095
0.383863
0.00184237
0.383846
0.00186866
0.383826
0.00189068
0.383803
0.00190914
0.383776
0.00192463
0.383748
0.00193764
0.383718
0.00194857
0.383686
0.00195776
0.383652
0.00196548
0.383618
0.00197198
0.383583
0.00197745
0.383547
0.00198205
0.38351
0.00198592
0.383473
0.00198918
0.383435
0.00199192
0.383397
0.00199423
0.383358
0.00199618
0.383319
0.00199782
0.38328
0.0019992
0.383241
0.00200036
0.383202
0.00200134
0.383162
0.00200216
0.383123
0.00200285
0.383083
0.00200343
0.383043
0.00200393
0.383003
0.00200434
0.382963
0.00200469
0.382923
0.00200498
0.382883
0.00200523
0.382843
0.00200543
0.382803
0.00200561
0.382763
0.00200576
0.382723
0.00200588
0.382682
0.00200598
0.382642
0.00200607
0.382602
0.00200615
0.382562
0.00200621
0.382522
0.00200626
0.382481
0.0020063
0.382441
0.00200634
0.382401
0.00200637
0.382361
0.0020064
0.382321
0.00200642
0.38228
0.00200644
0.38224
0.00200646
0.3822
0.00200647
0.38216
0.00200648
0.382119
0.00200649
0.382079
0.0020065
0.382039
0.00200651
0.381999
0.00200651
0.381958
0.00200652
0.381918
0.00200652
0.381878
0.00200653
0.00200653
0.34119
-0.102117
0.349801
-0.059222
0.35538
-0.0358415
0.359192
-0.0228447
0.361941
-0.0152564
0.363989
-0.0104655
0.365556
-0.00728271
0.366785
-0.00508085
0.36777
-0.00350718
0.368575
-0.00235226
0.369244
-0.00148594
0.369809
-0.000824202
0.370294
-0.000310985
0.370716
9.21706e-05
0.371088
0.000412308
0.37142
0.000668861
0.37172
0.000876059
0.371993
0.0010445
0.372245
0.00118221
0.37248
0.00129531
0.3727
0.00138859
0.372908
0.00146578
0.373106
0.00152983
0.373297
0.00158312
0.37348
0.00162753
0.373658
0.00166462
0.373831
0.00169563
0.374
0.0017216
0.374166
0.00174336
0.374329
0.00176161
0.374489
0.00177693
0.374648
0.00178979
0.374805
0.0018006
0.374961
0.00180969
0.375116
0.00181733
0.375269
0.00182375
0.375422
0.00182916
0.375575
0.0018337
0.375726
0.00183753
0.375877
0.00184075
0.376028
0.00184346
0.376179
0.00184574
0.376329
0.00184766
0.376479
0.00184928
0.376628
0.00185064
0.376778
0.00185178
0.376927
0.00185274
0.377077
0.00185356
0.377226
0.00185424
0.377375
0.00185481
0.377524
0.0018553
0.377673
0.0018557
0.377822
0.00185604
0.377971
0.00185633
0.37812
0.00185657
0.378269
0.00185678
0.378417
0.00185695
0.378566
0.0018571
0.378715
0.00185722
0.378864
0.00185732
0.379012
0.0018574
0.379161
0.00185748
0.37931
0.00185754
0.379459
0.00185759
0.379607
0.00185763
0.379756
0.00185767
0.379905
0.0018577
0.380053
0.00185773
0.380202
0.00185775
0.380351
0.00185777
0.380499
0.00185778
0.380648
0.0018578
0.380797
0.00185781
0.380945
0.00185782
0.381094
0.00185782
0.381243
0.00185783
0.381392
0.00185784
0.38154
0.00185784
0.381689
0.00185785
0.00185786
0.323719
-0.113182
0.332325
-0.0678286
0.338119
-0.0416356
0.342205
-0.0269303
0.345252
-0.0183039
0.347594
-0.0128069
0.349442
-0.00913109
0.350939
-0.00657818
0.352182
-0.00474948
0.353235
-0.00340569
0.354146
-0.00239705
0.354949
-0.0016264
0.355666
-0.00102871
0.356318
-0.000559278
0.356917
-0.000186609
0.357474
0.000111938
0.357997
0.000352957
0.358492
0.00054881
0.358966
0.000708849
0.359421
0.000840239
0.359861
0.000948543
0.360288
0.00103812
0.360706
0.00111241
0.361115
0.00117419
0.361517
0.00122566
0.361913
0.00126861
0.362304
0.00130451
0.362691
0.00133455
0.363075
0.00135971
0.363455
0.00138081
0.363834
0.0013985
0.36421
0.00141336
0.364585
0.00142584
0.364958
0.00143632
0.365331
0.00144513
0.365702
0.00145253
0.366072
0.00145876
0.366442
0.001464
0.366811
0.0014684
0.36718
0.0014721
0.367548
0.00147522
0.367916
0.00147784
0.368283
0.00148005
0.368651
0.0014819
0.369018
0.00148347
0.369385
0.00148478
0.369752
0.00148588
0.370119
0.00148681
0.370485
0.0014876
0.370852
0.00148826
0.371218
0.00148881
0.371585
0.00148927
0.371951
0.00148967
0.372317
0.00149
0.372684
0.00149027
0.37305
0.00149051
0.373416
0.0014907
0.373782
0.00149087
0.374149
0.00149101
0.374515
0.00149112
0.374881
0.00149122
0.375247
0.0014913
0.375613
0.00149137
0.375979
0.00149143
0.376346
0.00149148
0.376712
0.00149152
0.377078
0.00149156
0.377444
0.00149159
0.37781
0.00149161
0.378176
0.00149163
0.378542
0.00149165
0.378909
0.00149167
0.379275
0.00149168
0.379641
0.00149169
0.380007
0.0014917
0.380373
0.00149171
0.380739
0.00149172
0.381105
0.00149172
0.381471
0.00149173
0.00149174
0.306411
-0.121282
0.312862
-0.0742791
0.318757
-0.0475309
0.323114
-0.0312866
0.326482
-0.0216718
0.329148
-0.0154729
0.33131
-0.0112936
0.333109
-0.00837693
0.334641
-0.00628171
0.335975
-0.00473958
0.337159
-0.00358107
0.338228
-0.00269556
0.339208
-0.00200874
0.340118
-0.00146936
0.340973
-0.00104128
0.341783
-0.000698469
0.342558
-0.000421832
0.343304
-0.000197143
0.344027
-1.36356e-05
0.34473
0.000136943
0.345417
0.000260993
0.346092
0.000363535
0.346756
0.000448538
0.347411
0.000519173
0.348059
0.000577988
0.3487
0.000627045
0.349337
0.000668023
0.349969
0.000702292
0.350598
0.000730981
0.351223
0.000755018
0.351847
0.000775173
0.352468
0.000792082
0.353088
0.000806274
0.353706
0.000818191
0.354323
0.000828201
0.354939
0.000836612
0.355554
0.00084368
0.356168
0.000849621
0.356782
0.000854616
0.357395
0.000858815
0.358008
0.000862346
0.35862
0.000865315
0.359233
0.000867811
0.359845
0.00086991
0.360456
0.000871676
0.361068
0.000873161
0.36168
0.000874409
0.362291
0.000875459
0.362902
0.000876342
0.363513
0.000877085
0.364124
0.000877709
0.364735
0.000878234
0.365346
0.000878676
0.365957
0.000879047
0.366568
0.00087936
0.367179
0.000879622
0.36779
0.000879842
0.368401
0.000880029
0.369012
0.000880184
0.369623
0.000880316
0.370233
0.000880426
0.370844
0.000880518
0.371455
0.000880597
0.372066
0.000880662
0.372676
0.000880718
0.373287
0.000880765
0.373898
0.000880805
0.374509
0.000880837
0.375119
0.000880865
0.37573
0.000880889
0.376341
0.000880909
0.376952
0.000880926
0.377562
0.00088094
0.378173
0.000880953
0.378784
0.000880964
0.379395
0.000880973
0.380005
0.000880982
0.380616
0.000880989
0.381227
0.000880996
0.000881003
0.286826
-0.123138
0.291821
-0.0792736
0.296562
-0.0522725
0.301412
-0.0361358
0.305344
-0.0256041
0.308502
-0.0186311
0.311096
-0.0138871
0.313281
-0.0105627
0.31517
-0.00817002
0.316838
-0.00640762
0.31834
-0.00508348
0.319716
-0.00407164
0.320995
-0.00328722
0.322197
-0.00267157
0.323339
-0.00218329
0.324433
-0.00179255
0.325489
-0.00147748
0.326513
-0.00122176
0.327513
-0.00101307
0.328492
-0.00084196
0.329454
-0.000701097
0.330402
-0.000584745
0.331339
-0.000488362
0.332266
-0.000408328
0.333186
-0.000341733
0.334099
-0.000286225
0.335007
-0.000239892
0.335911
-0.000201169
0.336811
-0.000168774
0.337707
-0.000141648
0.338601
-0.000118919
0.339493
-9.98627e-05
0.340383
-8.38775e-05
0.341272
-7.04628e-05
0.342159
-5.92016e-05
0.343046
-4.97455e-05
0.343931
-4.18034e-05
0.344816
-3.51314e-05
0.3457
-2.95259e-05
0.346584
-2.48156e-05
0.347467
-2.08573e-05
0.34835
-1.75306e-05
0.349232
-1.47347e-05
0.350115
-1.23847e-05
0.350997
-1.04095e-05
0.351879
-8.74927e-06
0.35276
-7.35387e-06
0.353642
-6.18085e-06
0.354524
-5.19499e-06
0.355405
-4.36619e-06
0.356286
-3.66963e-06
0.357168
-3.08401e-06
0.358049
-2.59186e-06
0.35893
-2.17809e-06
0.359811
-1.8304e-06
0.360693
-1.53806e-06
0.361574
-1.29246e-06
0.362455
-1.08595e-06
0.363336
-9.12477e-07
0.364217
-7.66577e-07
0.365098
-6.44043e-07
0.365979
-5.40941e-07
0.36686
-4.54378e-07
0.367741
-3.81561e-07
0.368622
-3.20199e-07
0.369503
-2.67937e-07
0.370384
-2.24145e-07
0.371265
-1.87309e-07
0.372146
-1.56411e-07
0.373027
-1.30275e-07
0.373908
-1.0825e-07
0.374789
-8.94575e-08
0.375671
-7.34934e-08
0.376552
-5.96711e-08
0.377433
-4.77502e-08
0.378314
-3.7191e-08
0.379195
-2.78542e-08
0.380076
-1.92746e-08
0.380957
-1.13608e-08
-3.70098e-09
1.06189
-0.0977312
-1.08729
1.05372
-0.0711041
1.05278
-0.0513387
1.05403
-0.0373792
1.05596
-0.0275419
1.05795
-0.020614
1.05974
-0.0156777
1.06128
-0.0121016
1.06257
-0.00946448
1.06365
-0.00748653
1.06455
-0.00597968
1.06529
-0.00481564
1.06591
-0.00390534
1.06642
-0.00318584
1.06685
-0.00261184
1.06721
-0.00215026
1.06751
-0.00177651
1.06776
-0.0014721
1.06797
-0.0012229
1.06814
-0.00101802
1.06829
-0.000848971
1.06842
-0.000709041
1.06852
-0.00059291
1.06861
-0.000496315
1.06868
-0.000415818
1.06875
-0.000348629
1.0688
-0.000292473
1.06884
-0.000245485
1.06888
-0.00020613
1.06891
-0.000173144
1.06894
-0.000145477
1.06896
-0.000122258
1.06898
-0.000102764
1.069
-8.63912e-05
1.06901
-7.26352e-05
1.06902
-6.1075e-05
1.06903
-5.13583e-05
1.06904
-4.31895e-05
1.06904
-3.63214e-05
1.06905
-3.05461e-05
1.06906
-2.56895e-05
1.06906
-2.16051e-05
1.06906
-1.81701e-05
1.06907
-1.52811e-05
1.06907
-1.28513e-05
1.06907
-1.08077e-05
1.06907
-9.08891e-06
1.06907
-7.64329e-06
1.06907
-6.42749e-06
1.06908
-5.40491e-06
1.06908
-4.54491e-06
1.06908
-3.82159e-06
1.06908
-3.2133e-06
1.06908
-2.7017e-06
1.06908
-2.27149e-06
1.06908
-1.90967e-06
1.06908
-1.60544e-06
1.06908
-1.34958e-06
1.06908
-1.13446e-06
1.06908
-9.53518e-07
1.06908
-8.01382e-07
1.06908
-6.73393e-07
1.06908
-5.65763e-07
1.06908
-4.75172e-07
1.06908
-3.98817e-07
1.06908
-3.34254e-07
1.06908
-2.79914e-07
1.06908
-2.34143e-07
1.06908
-1.95595e-07
1.06908
-1.63019e-07
1.06908
-1.3546e-07
1.06908
-1.12006e-07
1.06908
-9.19904e-08
1.06908
-7.47382e-08
1.06908
-5.97795e-08
1.06908
-4.66051e-08
1.06908
-3.48722e-08
1.06908
-2.41677e-08
1.06908
-1.42194e-08
-4.67638e-09
1.07586
-0.0755468
-1.09804
1.06537
-0.0606122
1.06118
-0.0471517
1.05998
-0.0361795
1.06018
-0.0277413
1.06096
-0.021394
1.06192
-0.0166419
1.06289
-0.013068
1.06378
-0.0103565
1.06457
-0.00827752
1.06526
-0.00666622
1.06585
-0.00540436
1.06635
-0.00440667
1.06678
-0.00361098
1.06713
-0.00297152
1.06744
-0.00245413
1.0677
-0.00203304
1.06791
-0.00168857
1.06809
-0.00140555
1.06825
-0.00117212
1.06838
-0.000978986
1.06849
-0.000818743
1.06858
-0.000685481
1.06866
-0.000574436
1.06872
-0.000481748
1.06878
-0.000404274
1.06883
-0.000339439
1.06887
-0.000285126
1.0689
-0.00023959
1.06893
-0.000201385
1.06895
-0.000169314
1.06897
-0.000142377
1.06899
-0.000119744
1.069
-0.000100721
1.06902
-8.47282e-05
1.06903
-7.12798e-05
1.06903
-5.9969e-05
1.06904
-5.04548e-05
1.06905
-4.24509e-05
1.06905
-3.57171e-05
1.06906
-3.00516e-05
1.06906
-2.52845e-05
1.06906
-2.12734e-05
1.06907
-1.78983e-05
1.06907
-1.50583e-05
1.06907
-1.26687e-05
1.06907
-1.0658e-05
1.06907
-8.96618e-06
1.06908
-7.54268e-06
1.06908
-6.34496e-06
1.06908
-5.33724e-06
1.06908
-4.48939e-06
1.06908
-3.77608e-06
1.06908
-3.17595e-06
1.06908
-2.67109e-06
1.06908
-2.24636e-06
1.06908
-1.88908e-06
1.06908
-1.58851e-06
1.06908
-1.33568e-06
1.06908
-1.12298e-06
1.06908
-9.44041e-07
1.06908
-7.93477e-07
1.06908
-6.6678e-07
1.06908
-5.60111e-07
1.06908
-4.70226e-07
1.06908
-3.9439e-07
1.06908
-3.30478e-07
1.06908
-2.76595e-07
1.06908
-2.3114e-07
1.06908
-1.92714e-07
1.06908
-1.60158e-07
1.06908
-1.32461e-07
1.06908
-1.0879e-07
1.06908
-8.84081e-08
1.06908
-7.07091e-08
1.06908
-5.51424e-08
1.06908
-4.12521e-08
1.06908
-2.86018e-08
1.06908
-1.68225e-08
-5.54692e-09
1.08363
-0.0576701
-1.10151
1.07319
-0.0501669
1.06763
-0.0415955
1.06498
-0.0335243
1.06395
-0.0267138
1.06379
-0.0212295
1.06405
-0.0169053
1.0645
-0.0135208
1.06502
-0.0108716
1.06553
-0.00878999
1.06601
-0.0071448
1.06644
-0.00583603
1.06682
-0.00478799
1.06715
-0.00394341
1.06744
-0.00325881
1.06769
-0.00270094
1.0679
-0.00224419
1.06808
-0.00186868
1.06823
-0.00155884
1.06836
-0.00130239
1.06847
-0.00108955
1.06857
-0.000912499
1.06865
-0.000764923
1.06871
-0.00064171
1.06877
-0.000538692
1.06882
-0.000452454
1.06886
-0.00038019
1.06889
-0.000319585
1.06892
-0.00026872
1.06895
-0.000226006
1.06897
-0.000190119
1.06899
-0.000159954
1.069
-0.000134592
1.06901
-0.000113262
1.06902
-9.53191e-05
1.06903
-8.02225e-05
1.06904
-6.75191e-05
1.06905
-5.68283e-05
1.06905
-4.78306e-05
1.06906
-4.02575e-05
1.06906
-3.38831e-05
1.06906
-2.85175e-05
1.06907
-2.40011e-05
1.06907
-2.01994e-05
1.06907
-1.69994e-05
1.06907
-1.43059e-05
1.06907
-1.20388e-05
1.06907
-1.01306e-05
1.06908
-8.52453e-06
1.06908
-7.1728e-06
1.06908
-6.03516e-06
1.06908
-5.07773e-06
1.06908
-4.272e-06
1.06908
-3.59395e-06
1.06908
-3.02336e-06
1.06908
-2.54322e-06
1.06908
-2.13921e-06
1.06908
-1.79925e-06
1.06908
-1.5132e-06
1.06908
-1.27249e-06
1.06908
-1.06994e-06
1.06908
-8.99463e-07
1.06908
-7.55966e-07
1.06908
-6.35132e-07
1.06908
-5.33325e-07
1.06908
-4.47487e-07
1.06908
-3.75117e-07
1.06908
-3.14072e-07
1.06908
-2.62532e-07
1.06908
-2.18942e-07
1.06908
-1.81986e-07
1.06908
-1.50538e-07
1.06908
-1.23648e-07
1.06908
-1.00494e-07
1.06908
-8.03792e-08
1.06908
-6.26909e-08
1.06908
-4.68991e-08
1.06908
-3.25215e-08
1.06908
-1.9128e-08
-6.31131e-09
1.08735
-0.044043
-1.10098
1.07811
-0.0409259
1.07233
-0.0358227
1.06899
-0.0301759
1.06719
-0.0249221
1.06635
-0.0203854
1.06606
-0.0166139
1.06608
-0.0135375
1.06625
-0.0110495
1.06651
-0.0090429
1.06679
-0.00742326
1.06706
-0.00611263
1.06732
-0.00504834
1.06756
-0.00418077
1.06777
-0.00347081
1.06796
-0.0028877
1.06812
-0.00240712
1.06826
-0.00200983
1.06838
-0.00168048
1.06849
-0.0014068
1.06858
-0.00117891
1.06865
-0.000988786
1.06872
-0.000829931
1.06877
-0.000697022
1.06882
-0.000585696
1.06886
-0.000492358
1.0689
-0.000414038
1.06892
-0.000348275
1.06895
-0.000293025
1.06897
-0.000246585
1.06899
-0.000207536
1.069
-0.000174689
1.06901
-0.000147054
1.06902
-0.000123799
1.06903
-0.000104225
1.06904
-8.77487e-05
1.06905
-7.38779e-05
1.06905
-6.21998e-05
1.06906
-5.23672e-05
1.06906
-4.40884e-05
1.06906
-3.71175e-05
1.06907
-3.1248e-05
1.06907
-2.63058e-05
1.06907
-2.21445e-05
1.06907
-1.86408e-05
1.06907
-1.56908e-05
1.06907
-1.32072e-05
1.06908
-1.11162e-05
1.06908
-9.35586e-06
1.06908
-7.87393e-06
1.06908
-6.62642e-06
1.06908
-5.57629e-06
1.06908
-4.69236e-06
1.06908
-3.94833e-06
1.06908
-3.3221e-06
1.06908
-2.79503e-06
1.06908
-2.35143e-06
1.06908
-1.97808e-06
1.06908
-1.66387e-06
1.06908
-1.39942e-06
1.06908
-1.17684e-06
1.06908
-9.89475e-07
1.06908
-8.31732e-07
1.06908
-6.98886e-07
1.06908
-5.86961e-07
1.06908
-4.92612e-07
1.06908
-4.13053e-07
1.06908
-3.45922e-07
1.06908
-2.89219e-07
1.06908
-2.41244e-07
1.06908
-2.00553e-07
1.06908
-1.65918e-07
1.06908
-1.36293e-07
1.06908
-1.10781e-07
1.06908
-8.86128e-08
1.06908
-6.91175e-08
1.06908
-5.17086e-08
1.06908
-3.58589e-08
1.06908
-2.10915e-08
-6.9606e-09
1.08872
-0.0338967
-1.09887
1.081
-0.0332068
1.0756
-0.0304187
1.07206
-0.0266384
1.06987
-0.0227279
1.06858
-0.0190991
1.06788
-0.0159154
1.06755
-0.0132073
1.06744
-0.0109428
1.06747
-0.0090665
1.06756
-0.00751846
1.06769
-0.00624306
1.06784
-0.00519197
1.06798
-0.0043246
1.06812
-0.00360758
1.06824
-0.00301364
1.06836
-0.00252067
1.06846
-0.00211069
1.06855
-0.00176913
1.06862
-0.00148409
1.06869
-0.00124588
1.06875
-0.00104655
1.0688
-0.000879572
1.06884
-0.000739554
1.06888
-0.00062205
1.06891
-0.000523371
1.06893
-0.000440453
1.06896
-0.000370744
1.06898
-0.000312116
1.06899
-0.000262791
1.06901
-0.000221281
1.06902
-0.000186341
1.06903
-0.000156925
1.06904
-0.000132156
1.06904
-0.000111299
1.06905
-9.37331e-05
1.06905
-7.89392e-05
1.06906
-6.64791e-05
1.06906
-5.59845e-05
1.06906
-4.71453e-05
1.06907
-3.97003e-05
1.06907
-3.34297e-05
1.06907
-2.81484e-05
1.06907
-2.37005e-05
1.06907
-1.99545e-05
1.06908
-1.67998e-05
1.06908
-1.41432e-05
1.06908
-1.19062e-05
1.06908
-1.00224e-05
1.06908
-8.43634e-06
1.06908
-7.10089e-06
1.06908
-5.97652e-06
1.06908
-5.02992e-06
1.06908
-4.23302e-06
1.06908
-3.56216e-06
1.06908
-2.99744e-06
1.06908
-2.52207e-06
1.06908
-2.12192e-06
1.06908
-1.7851e-06
1.06908
-1.50157e-06
1.06908
-1.2629e-06
1.06908
-1.06196e-06
1.06908
-8.92762e-07
1.06908
-7.50258e-07
1.06908
-6.30193e-07
1.06908
-5.28986e-07
1.06908
-4.43635e-07
1.06908
-3.71603e-07
1.06908
-3.10743e-07
1.06908
-2.59236e-07
1.06908
-2.15538e-07
1.06908
-1.78334e-07
1.06908
-1.46505e-07
1.06908
-1.19091e-07
1.06908
-9.52652e-08
1.06908
-7.43105e-08
1.06908
-5.55957e-08
1.06908
-3.85562e-08
1.06908
-2.26788e-08
-7.48492e-09