/*--------------------------------*- C++ -*----------------------------------*\
  =========                 |
  \\      /  F ield         | OpenFOAM: The Open Source CFD Toolbox
   \\    /   O peration     | Website:  https://openfoam.org
    \\  /    A nd           | Version:  10
     \\/     M anipulation  |
\*---------------------------------------------------------------------------*/
FoamFile
{
    format      ascii;
    class       volVectorField;
    location    "2.64e-05";
    object      U;
}
// * * * * * * * * * * * * * * * * * * * * * * * * * * * * * * * * * * * * * //

dimensions      [0 1 -1 0 0 0 0];

internalField   nonuniform List<vector> 
7600
(
(4.42059 -2.48629 -8.70698e-18)
(3.56185 -2.32111 -4.70105e-18)
(3.76688 -1.56018 8.28571e-18)
(3.71021 -1.24244 7.11283e-18)
(3.69416 -0.995318 -2.10616e-18)
(3.68007 -0.818629 2.81745e-18)
(3.67025 -0.687371 0)
(3.66106 -0.591939 1.77623e-18)
(3.66647 -0.516393 -1.4344e-18)
(3.59132 -0.527952 0)
(4.81067 -2.43153 1.30527e-17)
(3.92263 -2.26769 1.9377e-18)
(4.00923 -1.52289 -8.06948e-18)
(3.90243 -1.21265 -4.75927e-18)
(3.84723 -0.971364 -3.10817e-18)
(3.80448 -0.798746 -2.81781e-18)
(3.77216 -0.669658 0)
(3.74431 -0.573582 1.22737e-18)
(3.72959 -0.486422 2.21228e-20)
(3.65695 -0.486009 9.34939e-19)
(5.185 -2.31379 -7.59501e-18)
(4.26913 -2.15667 0)
(4.24203 -1.44751 4.69212e-18)
(4.08722 -1.15252 -3.43209e-18)
(3.99455 -0.923007 5.67002e-18)
(3.92464 -0.758616 -1.00801e-18)
(3.87167 -0.635138 2.41824e-18)
(3.82837 -0.542331 -2.64129e-18)
(3.80095 -0.455788 9.11703e-19)
(3.73504 -0.450432 -2.35469e-18)
(5.53687 -2.1386 8.78981e-18)
(4.59483 -1.99257 0)
(4.46053 -1.33656 -4.69269e-18)
(4.26067 -1.064 2.02211e-18)
(4.1329 -0.851844 -1.2999e-18)
(4.03772 -0.699722 0)
(3.96575 -0.585116 -9.91832e-19)
(3.90843 -0.498559 8.83703e-19)
(3.86888 -0.41714 -1.53808e-18)
(3.80476 -0.412942 2.47289e-19)
(5.85715 -1.91001 1.23048e-18)
(4.89121 -1.77908 -2.58424e-18)
(4.65917 -1.19259 -4.60538e-19)
(4.41836 -0.949195 9.85413e-19)
(4.25875 -0.759673 0)
(4.14074 -0.623675 5.57692e-19)
(4.05169 -0.521033 -1.61491e-18)
(3.9818 -0.443331 5.88791e-19)
(3.93098 -0.370082 6.26343e-19)
(3.86796 -0.366567 4.57574e-19)
(6.13807 -1.63371 -4.76305e-18)
(5.15089 -1.52137 2.13694e-18)
(4.83304 -1.01912 1.41115e-18)
(4.55638 -0.810941 -9.85551e-19)
(4.36894 -0.648809 0)
(4.23102 -0.53242 3.18727e-19)
(4.1271 -0.444497 -2.91e-19)
(4.04623 -0.377887 1.17459e-19)
(3.98541 -0.315097 -8.70741e-21)
(3.92288 -0.312428 1.15394e-19)
(6.37278 -1.31645 1.96154e-18)
(5.36732 -1.22568 0)
(4.9778 -0.820381 0)
(4.67126 -0.65263 -3.88191e-20)
(4.46066 -0.521991 -7.90568e-20)
(4.30621 -0.428201 3.6269e-20)
(4.18994 -0.357322 4.71777e-20)
(4.09992 -0.303622 0)
(4.03066 -0.253026 6.00581e-20)
(3.96837 -0.25109 2.55437e-19)
(6.55566 -0.965888 7.41741e-20)
(5.53503 -0.899139 -6.27685e-20)
(5.08978 -0.601226 0)
(4.76008 -0.478147 2.16744e-19)
(4.53157 -0.382332 4.66154e-20)
(4.36435 -0.313555 0)
(4.23855 -0.261572 -3.36945e-19)
(4.14144 -0.222194 -2.88948e-19)
(4.0656 -0.185107 3.09135e-19)
(4.00341 -0.1838 -3.99695e-19)
(6.68206 -0.590341 0)
(5.64973 -0.54959 4.25114e-20)
(5.16612 -0.367032 6.87863e-20)
(4.82056 -0.291786 1.9662e-19)
(4.57984 -0.233264 -1.26751e-19)
(4.40394 -0.19127 0)
(4.27166 -0.159529 1.50859e-19)
(4.16972 -0.135485 1.54861e-19)
(4.08937 -0.112843 0)
(4.02723 -0.112079 -1.13395e-19)
(6.75077 -0.198838 -2.79453e-33)
(5.70845 -0.185525 6.24781e-20)
(5.20468 -0.123548 -2.10873e-19)
(4.85104 -0.0981509 -1.00215e-19)
(4.60419 -0.0784612 4.81195e-20)
(4.42393 -0.0643347 -8.51132e-20)
(4.2884 -0.0536494 0)
(4.18404 -0.0455459 -1.53535e-34)
(4.10141 -0.037911 7.0079e-20)
(4.0393 -0.0376344 4.81687e-20)
(1.74438 -0.19865 -3.07749e-19)
(1.06908 -0.185793 4.42499e-19)
(2.09336 -0.123699 1.32301e-18)
(2.37905 -0.0982378 1.01466e-18)
(2.62998 -0.078466 1.67251e-19)
(2.80794 -0.0643158 -3.51739e-19)
(2.94261 -0.0537068 0)
(3.04672 -0.0455949 -3.94433e-34)
(3.12844 -0.0392499 1.78444e-19)
(3.19785 -0.0344451 -4.81393e-19)
(1.80656 -0.584613 0)
(1.12649 -0.544503 8.7835e-19)
(2.13114 -0.364741 -2.78588e-18)
(2.40922 -0.290215 -4.85645e-19)
(2.65409 -0.232222 1.62323e-18)
(2.82769 -0.190603 0)
(2.95903 -0.159333 -1.05395e-18)
(3.06059 -0.135374 -8.70926e-19)
(3.13985 -0.116654 0)
(3.20908 -0.102263 3.15213e-19)
(1.92856 -0.958578 -1.16119e-18)
(1.23983 -0.892653 9.82247e-19)
(2.20665 -0.598356 0)
(2.46924 -0.476021 5.04583e-18)
(2.70202 -0.380847 -5.66803e-18)
(2.8669 -0.312529 0)
(2.9916 -0.261187 3.11378e-18)
(3.08808 -0.221814 -7.72088e-19)
(3.16246 -0.191202 2.94164e-18)
(3.23126 -0.16699 1.20273e-18)
(2.10725 -1.30791 9.28156e-18)
(1.406 -1.21792 0)
(2.3177 -0.816902 0)
(2.55748 -0.649925 -5.96533e-18)
(2.7725 -0.519984 4.86783e-18)
(2.92459 -0.426656 -1.18297e-18)
(3.03955 -0.356472 -9.79649e-19)
(3.12854 -0.302554 0)
(3.19576 -0.26093 -1.42033e-18)
(3.26377 -0.226549 -1.20253e-18)
(2.33813 -1.62463 -1.8248e-17)
(1.62083 -1.51302 7.02609e-18)
(2.46152 -1.01532 5.03603e-18)
(2.67178 -0.807851 -3.8211e-18)
(2.86384 -0.646336 0)
(2.99939 -0.530246 -2.28142e-18)
(3.10178 -0.442861 2.08286e-18)
(3.18111 -0.375542 3.09662e-18)
(3.23907 -0.32403 1.13477e-18)
(3.30576 -0.278924 -2.37338e-18)
(2.61532 -1.90088 1.32848e-17)
(1.87889 -1.77071 -5.66478e-18)
(2.63448 -1.18871 -7.76704e-18)
(2.80929 -0.945919 3.82039e-18)
(2.97378 -0.756811 0)
(3.08953 -0.620779 -2.17795e-18)
(3.1769 -0.518241 -1.63648e-18)
(3.24468 -0.438916 1.39765e-18)
(3.29165 -0.378804 2.45198e-18)
(3.35618 -0.322091 2.04922e-18)
(2.93178 -2.12993 1.63038e-17)
(2.1737 -1.98478 0)
(2.83227 -1.33287 -6.92914e-18)
(2.9666 -1.06079 8.28341e-18)
(3.09964 -0.848763 -8.306e-18)
(3.19283 -0.696121 0)
(3.26324 -0.580862 1.88858e-18)
(3.31806 -0.491162 -1.72355e-18)
(3.35295 -0.423792 -4.73261e-18)
(3.41406 -0.354135 -1.51432e-19)
(3.27948 -2.30625 -1.44657e-17)
(2.49792 -2.15017 -3.22614e-18)
(3.04998 -1.44438 9.11109e-18)
(3.13982 -1.14973 -6.88847e-18)
(3.23829 -0.92004 1.03011e-17)
(3.3068 -0.754594 1.91866e-18)
(3.35884 -0.629448 4.73628e-18)
(3.39983 -0.531257 -8.16822e-18)
(3.42263 -0.457769 2.28067e-18)
(3.47747 -0.371399 -3.63651e-18)
(3.64942 -2.4255 1.2351e-17)
(2.84314 -2.26266 -2.63541e-18)
(3.2821 -1.5204 -5.59189e-18)
(3.32455 -1.21051 -5.92075e-18)
(3.38619 -0.968926 -4.96561e-18)
(3.42849 -0.794971 -3.58135e-18)
(3.46148 -0.663302 0)
(3.48881 -0.559262 -2.06262e-18)
(3.50389 -0.479498 4.02242e-18)
(3.55064 -0.375543 1.73907e-18)
(4.03313 -2.48572 -1.41951e-17)
(3.20248 -2.32154 2.42119e-18)
(3.52376 -1.56029 5.7761e-18)
(3.51676 -1.24234 3.28969e-18)
(3.53982 -0.994696 2.35303e-18)
(3.55467 -0.816837 3.5808e-18)
(3.56821 -0.682999 0)
(3.58352 -0.578551 2.31483e-18)
(3.60251 -0.501397 -1.89152e-18)
(3.65851 -0.38482 0)
(3.30055 -0.0234509 -5.29703e-20)
(3.40634 -0.0130297 5.70808e-20)
(3.46291 -0.00808328 0)
(3.49978 -0.00523282 0)
(3.5244 -0.00352035 0)
(3.54174 -0.00241004 -2.08024e-20)
(3.55443 -0.00165359 1.95045e-20)
(3.56406 -0.0012145 0)
(3.57139 -0.000911152 5.79381e-21)
(3.577 -0.000695618 -6.46219e-21)
(3.58138 -0.000540015 0)
(3.58484 -0.000426473 0)
(3.58764 -0.000371394 0)
(3.58988 -0.000331548 0)
(3.59163 -0.000285485 0)
(3.59304 -0.000242294 1.74839e-21)
(3.59419 -0.000204559 -2.80408e-22)
(3.59514 -0.000172726 -1.47204e-21)
(3.59592 -0.000145102 0)
(3.59657 -0.000122015 0)
(3.59711 -0.000102765 0)
(3.59757 -8.63922e-05 8.42873e-23)
(3.59795 -7.2342e-05 0)
(3.59827 -6.06347e-05 0)
(3.59854 -5.08795e-05 0)
(3.59877 -4.2716e-05 0)
(3.59896 -3.58642e-05 0)
(3.59912 -3.01053e-05 0)
(3.59926 -2.52634e-05 2.13672e-22)
(3.59938 -2.11931e-05 -3.47195e-22)
(3.59947 -1.77727e-05 2.4986e-23)
(3.59955 -1.48997e-05 1.34173e-22)
(3.59962 -1.24875e-05 0)
(3.59968 -1.04632e-05 0)
(3.59973 -8.76485e-06 0)
(3.59977 -7.34053e-06 7.78002e-24)
(3.59981 -6.14639e-06 0)
(3.59984 -5.14544e-06 0)
(3.59986 -4.3067e-06 0)
(3.59989 -3.60399e-06 0)
(3.5999 -3.01543e-06 -2.46153e-23)
(3.59992 -2.52251e-06 2.18314e-23)
(3.59993 -2.10983e-06 0)
(3.59994 -1.76433e-06 -7.40719e-24)
(3.59995 -1.47519e-06 7.41687e-24)
(3.59996 -1.2332e-06 0)
(3.59997 -1.03075e-06 4.46153e-24)
(3.59997 -8.6135e-07 -4.46738e-24)
(3.59998 -7.19689e-07 -8.62732e-25)
(3.59998 -6.01172e-07 0)
(3.59998 -5.02099e-07 2.275e-24)
(3.59999 -4.19237e-07 -2.278e-24)
(3.59999 -3.50005e-07 1.62715e-24)
(3.59999 -2.92118e-07 -1.6293e-24)
(3.59999 -2.43778e-07 0)
(3.59999 -2.03371e-07 9.87098e-25)
(3.59999 -1.69648e-07 -9.88408e-25)
(3.59999 -1.41457e-07 -7.09125e-25)
(3.6 -1.17942e-07 7.10068e-25)
(3.6 -9.828e-08 -5.10602e-25)
(3.6 -8.18886e-08 2.94458e-25)
(3.6 -6.8179e-08 2.17115e-25)
(3.6 -5.67642e-08 -8.46452e-26)
(3.6 -4.7234e-08 0)
(3.6 -3.93109e-08 0)
(3.6 -3.25578e-08 0)
(3.6 -2.73495e-08 0)
(3.6 -2.29251e-08 6.9768e-26)
(3.6 -1.91868e-08 -6.98621e-26)
(3.6 -1.60229e-08 -7.73227e-26)
(3.6 -1.33557e-08 5.02199e-26)
(3.6 -1.10791e-08 1.77251e-26)
(3.6 -9.13065e-09 -3.24684e-26)
(3.6 -7.44747e-09 1.47393e-26)
(3.6 -5.96526e-09 0)
(3.6 -4.67531e-09 0)
(3.6 -3.49748e-09 0)
(3.6 -2.43634e-09 0)
(3.6 -1.42353e-09 -2.22865e-28)
(3.6 -4.57084e-10 2.23171e-28)
(3.30583 -0.0699608 -1.25642e-19)
(3.40912 -0.0390025 1.07644e-19)
(3.4642 -0.0242485 4.7887e-21)
(3.50046 -0.0157242 -6.05373e-20)
(3.52478 -0.0105955 5.35624e-20)
(3.54197 -0.0072685 1.32943e-21)
(3.55455 -0.00500391 -2.20303e-21)
(3.5641 -0.00365462 -2.74746e-20)
(3.57141 -0.00274261 2.75068e-20)
(3.57701 -0.00209391 2.02101e-20)
(3.58137 -0.00162537 -2.06813e-20)
(3.58482 -0.00128245 1.39466e-20)
(3.58762 -0.00109115 -1.39631e-20)
(3.58987 -0.000987893 0)
(3.59163 -0.00085378 8.33097e-21)
(3.59304 -0.000725826 -1.33599e-21)
(3.59419 -0.000613366 -1.29041e-20)
(3.59514 -0.000518284 5.56231e-21)
(3.59592 -0.000435514 2.82393e-22)
(3.59657 -0.00036631 3.51099e-21)
(3.59711 -0.000308585 -5.58045e-22)
(3.59757 -0.000259451 -3.04531e-21)
(3.59796 -0.000217246 -2.09834e-21)
(3.59828 -0.000182092 3.32837e-22)
(3.59855 -0.000152798 1.77013e-21)
(3.59877 -0.000128282 -1.34131e-21)
(3.59896 -0.000107703 1.25778e-21)
(3.59912 -9.04054e-05 8.93606e-22)
(3.59926 -7.58617e-05 -1.66386e-22)
(3.59938 -6.36361e-05 -7.54803e-22)
(3.59947 -5.33627e-05 0)
(3.59956 -4.47341e-05 0)
(3.59962 -3.74898e-05 1.91187e-22)
(3.59968 -3.14106e-05 -3.52789e-22)
(3.59973 -2.63107e-05 1.61566e-22)
(3.59977 -2.20341e-05 -7.80592e-24)
(3.59981 -1.84485e-05 0)
(3.59984 -1.54436e-05 8.19205e-23)
(3.59986 -1.29255e-05 -9.1381e-23)
(3.59989 -1.08162e-05 0)
(3.5999 -9.04935e-06 0)
(3.59992 -7.56998e-06 2.824e-24)
(3.59993 -6.33124e-06 3.51195e-23)
(3.59994 -5.29446e-06 -3.11488e-23)
(3.59995 -4.42658e-06 2.50365e-23)
(3.59996 -3.70048e-06 -2.50673e-23)
(3.59997 -3.09279e-06 0)
(3.59997 -2.5846e-06 0)
(3.59998 -2.15938e-06 8.64725e-25)
(3.59998 -1.80394e-06 1.07693e-23)
(3.59998 -1.50659e-06 -1.67956e-24)
(3.59999 -1.25817e-06 -1.68111e-23)
(3.59999 -1.05038e-06 7.70636e-24)
(3.59999 -8.76877e-07 7.44961e-25)
(3.59999 -7.31768e-07 0)
(3.59999 -6.10675e-07 -1.97428e-24)
(3.59999 -5.09387e-07 1.97674e-24)
(3.59999 -4.24925e-07 -1.41815e-24)
(3.6 -3.54249e-07 1.41992e-24)
(3.6 -2.95375e-07 0)
(3.6 -2.46084e-07 2.34193e-25)
(3.6 -2.05095e-07 7.3676e-25)
(3.6 -1.70786e-07 -8.2204e-25)
(3.6 -1.42346e-07 0)
(3.6 -1.18516e-07 0)
(3.6 -9.85867e-08 3.85576e-25)
(3.6 -8.26896e-08 -3.86062e-25)
(3.6 -6.93893e-08 0)
(3.6 -5.80048e-08 0)
(3.6 -4.8538e-08 2.71866e-26)
(3.6 -4.03383e-08 -8.45143e-26)
(3.6 -3.35133e-08 1.55453e-25)
(3.6 -2.74906e-08 -4.43162e-26)
(3.6 -2.24611e-08 -5.88907e-26)
(3.6 -1.79172e-08 0)
(3.6 -1.40692e-08 1.70097e-26)
(3.6 -1.04556e-08 0)
(3.6 -7.32649e-09 0)
(3.6 -4.23387e-09 -8.90132e-28)
(3.6 -1.41616e-09 8.91275e-28)
(3.31628 -0.115275 8.09639e-21)
(3.41462 -0.0647066 6.13748e-21)
(3.46678 -0.0404029 1.24688e-19)
(3.50182 -0.0262887 -1.35275e-19)
(3.52554 -0.0177707 3.20987e-21)
(3.54242 -0.0122385 8.29462e-20)
(3.55479 -0.00847796 -1.47817e-20)
(3.56419 -0.00612662 -6.52246e-20)
(3.57144 -0.00460156 -3.10839e-21)
(3.57702 -0.00351352 -2.62374e-21)
(3.58137 -0.002727 1.12444e-21)
(3.58481 -0.00214844 -1.87385e-21)
(3.58758 -0.00175735 2.19688e-20)
(3.58983 -0.00161993 -2.49172e-20)
(3.59162 -0.00141218 -1.12846e-21)
(3.59304 -0.00120525 1.40545e-20)
(3.59419 -0.00102074 -1.40691e-20)
(3.59514 -0.000863889 -3.33753e-22)
(3.59592 -0.000726399 -8.51001e-22)
(3.59657 -0.000611304 4.76512e-22)
(3.59712 -0.000515226 4.01389e-22)
(3.59757 -0.000433307 3.38163e-22)
(3.59796 -0.000362793 2.8485e-22)
(3.59828 -0.000304101 0)
(3.59855 -0.000255193 0)
(3.59877 -0.000214247 8.57421e-23)
(3.59896 -0.00017987 0)
(3.59913 -0.000150972 0)
(3.59926 -0.000126674 0)
(3.59938 -0.000106248 -6.38126e-22)
(3.59947 -8.9086e-05 6.38798e-22)
(3.59956 -7.46723e-05 0)
(3.59963 -6.25723e-05 0)
(3.59968 -5.24194e-05 0)
(3.59973 -4.3903e-05 0)
(3.59977 -3.67622e-05 -2.30518e-22)
(3.59981 -3.07763e-05 3.6204e-23)
(3.59984 -2.57601e-05 3.58975e-22)
(3.59986 -2.15573e-05 -1.54966e-22)
(3.59989 -1.80371e-05 -1.16982e-22)
(3.5999 -1.5089e-05 1.83666e-23)
(3.59992 -1.26207e-05 1.82191e-22)
(3.59993 -1.05543e-05 -8.34344e-23)
(3.59994 -8.82491e-06 -4.03546e-24)
(3.59995 -7.37751e-06 -5.6924e-23)
(3.59996 -6.16664e-06 9.25358e-23)
(3.59997 -5.15348e-06 -4.23843e-23)
(3.59997 -4.30619e-06 0)
(3.59998 -3.59742e-06 0)
(3.59998 -3.00494e-06 7.86373e-24)
(3.59998 -2.50946e-06 -1.07894e-23)
(3.59999 -2.09545e-06 0)
(3.59999 -1.7493e-06 0)
(3.59999 -1.46019e-06 -7.47808e-25)
(3.59999 -1.21851e-06 -1.26014e-24)
(3.59999 -1.01677e-06 0)
(3.59999 -8.48111e-07 -3.34557e-24)
(3.59999 -7.07405e-07 5.13247e-25)
(3.6 -5.89763e-07 2.18962e-24)
(3.6 -4.9169e-07 0)
(3.6 -4.09679e-07 1.49858e-24)
(3.6 -3.41403e-07 -1.73529e-24)
(3.6 -2.84344e-07 1.69497e-25)
(3.6 -2.36973e-07 -2.87103e-25)
(3.6 -1.97362e-07 0)
(3.6 -1.64319e-07 0)
(3.6 -1.37892e-07 0)
(3.6 -1.15648e-07 -1.50338e-25)
(3.6 -9.6727e-08 -2.36395e-25)
(3.6 -8.08781e-08 3.65326e-26)
(3.6 -6.72574e-08 3.69072e-25)
(3.6 -5.58077e-08 -2.7525e-26)
(3.6 -4.58201e-08 -1.09315e-25)
(3.6 -3.73721e-08 0)
(3.6 -2.98504e-08 3.85104e-26)
(3.6 -2.3384e-08 -5.55655e-26)
(3.6 -1.74229e-08 0)
(3.6 -1.21586e-08 -7.15555e-27)
(3.6 -7.07067e-09 7.16349e-27)
(3.6 -2.35269e-09 0)
(3.33162 -0.158534 1.54847e-20)
(3.42273 -0.0899346 0)
(3.47065 -0.0565166 1.91169e-20)
(3.50386 -0.0369613 1.12901e-19)
(3.52668 -0.0251018 -1.06704e-19)
(3.54311 -0.0173827 -1.15399e-22)
(3.55517 -0.0121421 6.94383e-20)
(3.56435 -0.00863639 -6.6514e-21)
(3.5715 -0.00650567 -5.16036e-20)
(3.57704 -0.00496897 5.27667e-21)
(3.58137 -0.00385654 -3.29487e-20)
(3.58479 -0.00303275 6.46059e-20)
(3.58752 -0.00243529 -4.98433e-20)
(3.58977 -0.00218825 2.62853e-20)
(3.59159 -0.00194554 1.14538e-21)
(3.59303 -0.00167382 9.51985e-22)
(3.59419 -0.00142365 8.01551e-22)
(3.59514 -0.00120846 -9.31896e-21)
(3.59593 -0.00101743 2.16533e-21)
(3.59658 -0.000857087 7.94158e-21)
(3.59712 -0.000723019 5.96704e-21)
(3.59758 -0.000608365 -6.31835e-21)
(3.59796 -0.000509332 -4.52459e-21)
(3.59828 -0.000426985 7.80801e-21)
(3.59855 -0.000358352 -5.64336e-22)
(3.59878 -0.000300864 -3.00959e-21)
(3.59897 -0.000252578 0)
(3.59913 -0.000211979 -1.80228e-21)
(3.59926 -0.00017784 3.32391e-21)
(3.59938 -0.000149143 -1.5214e-21)
(3.59948 -0.000125031 7.30541e-23)
(3.59956 -0.000104784 0)
(3.59963 -8.77891e-05 7.70218e-22)
(3.59968 -7.3531e-05 -1.37688e-21)
(3.59973 -6.15733e-05 1.39068e-22)
(3.59978 -5.15487e-05 5.80127e-22)
(3.59981 -4.3147e-05 -1.9526e-22)
(3.59984 -3.61077e-05 1.95422e-22)
(3.59987 -3.0211e-05 1.39047e-22)
(3.59989 -2.5273e-05 -2.18222e-23)
(3.5999 -2.11383e-05 -1.17437e-22)
(3.59992 -1.76772e-05 -8.35698e-23)
(3.59993 -1.47803e-05 7.41106e-23)
(3.59994 -1.23562e-05 -8.04228e-24)
(3.59995 -1.03279e-05 -4.34159e-23)
(3.59996 -8.63126e-06 5.02921e-23)
(3.59997 -7.21201e-06 -4.83848e-24)
(3.59997 -6.02526e-06 0)
(3.59998 -5.0328e-06 -3.45069e-24)
(3.59998 -4.20324e-06 -1.86483e-23)
(3.59998 -3.50969e-06 2.16e-23)
(3.59999 -2.93021e-06 0)
(3.59999 -2.44586e-06 0)
(3.59999 -2.04133e-06 -9.53713e-24)
(3.59999 -1.70328e-06 1.23019e-23)
(3.59999 -1.42106e-06 0)
(3.59999 -1.18524e-06 0)
(3.59999 -9.8846e-07 2.83547e-24)
(3.6 -8.2403e-07 2.19037e-25)
(3.6 -6.86904e-07 -2.9568e-24)
(3.6 -5.72325e-07 0)
(3.6 -4.76878e-07 0)
(3.6 -3.97189e-07 0)
(3.6 -3.30981e-07 2.88041e-25)
(3.6 -2.75681e-07 -9.04304e-25)
(3.6 -2.29885e-07 -7.14944e-26)
(3.6 -1.92895e-07 1.42414e-24)
(3.6 -1.61723e-07 5.18758e-26)
(3.6 -1.35299e-07 -5.56456e-25)
(3.6 -1.13077e-07 0)
(3.6 -9.40664e-08 0)
(3.6 -7.79972e-08 0)
(3.6 -6.4075e-08 0)
(3.6 -5.22093e-08 -9.57807e-26)
(3.6 -4.17368e-08 9.58622e-26)
(3.6 -3.26482e-08 2.97257e-26)
(3.6 -2.43656e-08 -2.9751e-26)
(3.6 -1.6961e-08 7.12482e-27)
(3.6 -9.90001e-09 -7.13091e-27)
(3.6 -3.25958e-09 0)
(3.3515 -0.198778 -1.58665e-20)
(3.43327 -0.114439 -3.31852e-19)
(3.47581 -0.0725278 3.34064e-19)
(3.50658 -0.0477574 2.2531e-19)
(3.5282 -0.03263 -2.31856e-19)
(3.54401 -0.0227492 1.49383e-19)
(3.55572 -0.0160427 -2.84351e-19)
(3.5646 -0.0113203 1.25873e-19)
(3.57157 -0.00847812 0)
(3.57707 -0.00647552 -8.30701e-20)
(3.58138 -0.0050263 1.10739e-19)
(3.58478 -0.00394707 -6.26439e-20)
(3.58747 -0.00316389 2.78418e-20)
(3.58969 -0.00262612 -1.3653e-21)
(3.59154 -0.00241713 -1.68567e-20)
(3.59302 -0.00211485 1.68907e-21)
(3.59419 -0.00181382 1.33949e-20)
(3.59514 -0.00154824 0)
(3.59593 -0.00130675 0)
(3.59658 -0.00110286 0)
(3.59713 -0.000931777 -4.10484e-22)
(3.59759 -0.000784733 0)
(3.59797 -0.000657018 -4.26831e-21)
(3.59829 -0.000550947 7.86578e-21)
(3.59856 -0.000462498 -6.62643e-21)
(3.59878 -0.000388341 3.03082e-21)
(3.59897 -0.000326012 2.15224e-21)
(3.59913 -0.000273586 -3.3862e-22)
(3.59927 -0.000229493 -3.34596e-21)
(3.59938 -0.000192427 1.53112e-21)
(3.59948 -0.000161286 -7.41608e-23)
(3.59956 -0.000135138 0)
(3.59963 -0.000113194 0)
(3.59969 -9.4787e-05 -4.2444e-25)
(3.59974 -7.93532e-05 -3.75497e-23)
(3.59978 -6.64174e-05 -3.16771e-23)
(3.59981 -5.55784e-05 0)
(3.59984 -4.64992e-05 0)
(3.59987 -3.88958e-05 0)
(3.59989 -3.25301e-05 -2.35656e-22)
(3.5999 -2.72014e-05 3.69533e-23)
(3.59992 -2.2742e-05 1.87603e-22)
(3.59993 -1.90104e-05 -1.31907e-22)
(3.59994 -1.58888e-05 1.49745e-22)
(3.59995 -1.32775e-05 4.35948e-23)
(3.59996 -1.10937e-05 -5.04219e-23)
(3.59997 -9.26751e-06 4.07901e-23)
(3.59997 -7.74081e-06 -7.03238e-23)
(3.59998 -6.4644e-06 3.72637e-23)
(3.59998 -5.39774e-06 -2.91705e-24)
(3.59998 -4.50619e-06 0)
(3.59999 -3.76143e-06 0)
(3.59999 -3.1391e-06 -1.76005e-24)
(3.59999 -2.61943e-06 -1.25333e-23)
(3.59999 -2.18527e-06 1.70441e-24)
(3.59999 -1.82287e-06 1.61752e-23)
(3.59999 -1.52013e-06 -1.45964e-23)
(3.59999 -1.26755e-06 1.23644e-23)
(3.6 -1.05655e-06 -5.67267e-24)
(3.6 -8.80604e-07 5.53365e-25)
(3.6 -7.33639e-07 0)
(3.6 -6.11211e-07 -3.9594e-25)
(3.6 -5.09034e-07 1.24895e-24)
(3.6 -4.24145e-07 -1.24959e-24)
(3.6 -3.53259e-07 2.43122e-25)
(3.6 -2.95253e-07 -5.59679e-25)
(3.6 -2.47613e-07 7.68145e-25)
(3.6 -2.07577e-07 -5.54561e-25)
(3.6 -1.7366e-07 1.02525e-24)
(3.6 -1.45115e-07 -9.76154e-25)
(3.6 -1.20718e-07 3.98198e-25)
(3.6 -1.00074e-07 0)
(3.6 -8.22162e-08 -1.80201e-25)
(3.6 -6.69721e-08 1.16588e-25)
(3.6 -5.35449e-08 7.63737e-26)
(3.6 -4.18695e-08 -1.09979e-25)
(3.6 -3.1259e-08 0)
(3.6 -2.17467e-08 1.0644e-26)
(3.6 -1.27025e-08 -5.18447e-27)
(3.6 -4.17886e-09 1.75683e-27)
(3.37545 -0.234889 1.47711e-20)
(3.44598 -0.137936 3.28716e-19)
(3.48222 -0.08834 -3.40818e-19)
(3.50997 -0.0586705 0)
(3.53009 -0.0403817 6.23363e-21)
(3.54513 -0.0283718 0)
(3.55643 -0.0202117 1.29193e-19)
(3.56498 -0.0144295 -2.37872e-19)
(3.5717 -0.0105099 1.05629e-19)
(3.57711 -0.00804916 7.76923e-20)
(3.58138 -0.0062493 -7.97935e-20)
(3.58477 -0.0049014 0)
(3.58746 -0.00391397 -4.7088e-20)
(3.58962 -0.00312687 4.84208e-20)
(3.59145 -0.00268124 3.38704e-20)
(3.59298 -0.00247419 -6.22861e-21)
(3.59417 -0.00216962 -2.94136e-20)
(3.59514 -0.00187183 0)
(3.59594 -0.00158823 -5.75288e-22)
(3.59659 -0.00134546 -1.44217e-20)
(3.59713 -0.00113999 1.44231e-20)
(3.59759 -0.000961775 -3.44566e-22)
(3.59798 -0.000805542 4.30975e-21)
(3.59829 -0.000675911 -9.24877e-22)
(3.59856 -0.00056768 -5.72265e-22)
(3.59879 -0.000476784 -4.81436e-22)
(3.59897 -0.000400297 -2.5769e-21)
(3.59913 -0.000335914 1.23306e-22)
(3.59927 -0.000281743 0)
(3.59938 -0.000236197 -8.76704e-23)
(3.59948 -0.000197929 -1.09748e-21)
(3.59956 -0.000165799 2.02311e-21)
(3.59963 -0.000138839 -8.7302e-22)
(3.59969 -0.000116229 6.13401e-22)
(3.59974 -9.72748e-05 -1.25093e-21)
(3.59978 -8.13927e-05 1.02346e-21)
(3.59981 -6.80887e-05 -7.33751e-23)
(3.59984 -5.69482e-05 -6.18825e-23)
(3.59987 -4.76213e-05 -3.33087e-22)
(3.59989 -3.98151e-05 -2.36911e-22)
(3.5999 -3.32828e-05 2.36934e-22)
(3.59992 -2.78178e-05 1.14845e-23)
(3.59993 -2.32464e-05 0)
(3.59994 -1.94233e-05 0)
(3.59995 -1.62264e-05 1.0806e-22)
(3.59996 -1.35537e-05 -1.01178e-22)
(3.59997 -1.13193e-05 0)
(3.59997 -9.45198e-06 6.49309e-23)
(3.59998 -7.89129e-06 -6.42911e-23)
(3.59998 -6.58744e-06 2.94987e-24)
(3.59998 -5.49801e-06 1.82968e-23)
(3.59999 -4.58818e-06 -1.82985e-23)
(3.59999 -3.82816e-06 -1.12853e-23)
(3.59999 -3.19366e-06 1.30642e-23)
(3.59999 -2.66374e-06 9.34057e-24)
(3.59999 -2.22151e-06 -3.62899e-25)
(3.59999 -1.8522e-06 -1.213e-24)
(3.59999 -1.54413e-06 -6.69228e-24)
(3.6 -1.28687e-06 0)
(3.6 -1.07238e-06 -4.07481e-24)
(3.6 -8.93278e-07 4.0752e-24)
(3.6 -7.44089e-07 3.98417e-25)
(3.6 -6.19622e-07 0)
(3.6 -5.16229e-07 0)
(3.6 -4.29839e-07 1.55732e-24)
(3.6 -3.60381e-07 -1.80183e-24)
(3.6 -3.02001e-07 0)
(3.6 -2.53147e-07 0)
(3.6 -2.11778e-07 4.68686e-25)
(3.6 -1.76941e-07 -3.60901e-25)
(3.6 -1.47191e-07 -3.33871e-25)
(3.6 -1.21997e-07 3.33903e-25)
(3.6 -1.0023e-07 6.37783e-26)
(3.6 -8.16288e-08 -9.48058e-26)
(3.6 -6.52689e-08 1.89059e-26)
(3.6 -5.10237e-08 1.09496e-25)
(3.6 -3.81042e-08 0)
(3.6 -2.64972e-08 -1.77202e-26)
(3.6 -1.54882e-08 1.39916e-26)
(3.6 -5.09708e-09 -3.48489e-27)
(3.40293 -0.265524 -4.55188e-19)
(3.46048 -0.159978 4.36673e-19)
(3.48985 -0.103766 -9.21634e-21)
(3.51401 -0.0696314 2.2492e-19)
(3.53234 -0.0483387 -4.1093e-19)
(3.54645 -0.0342488 1.80624e-19)
(3.55724 -0.0246547 0)
(3.56551 -0.017909 0)
(3.57194 -0.0129433 3.15456e-21)
(3.57715 -0.00968633 -7.4698e-20)
(3.58139 -0.00753704 7.95893e-20)
(3.58476 -0.00590614 -5.54636e-20)
(3.58744 -0.00470798 5.54409e-20)
(3.5896 -0.00376641 -1.37089e-21)
(3.59137 -0.00300972 0)
(3.59288 -0.00262219 9.8678e-22)
(3.59413 -0.00238453 8.33345e-22)
(3.59513 -0.00214313 0)
(3.59594 -0.0018448 5.92241e-22)
(3.59659 -0.00157468 0)
(3.59714 -0.00134136 0)
(3.5976 -0.00113558 3.54182e-22)
(3.59798 -0.000952624 0)
(3.5983 -0.00080061 4.97862e-22)
(3.59857 -0.000673218 6.18622e-21)
(3.59879 -0.000565841 -1.12203e-20)
(3.59898 -0.00047526 8.1797e-22)
(3.59914 -0.000398892 4.26358e-21)
(3.59927 -0.000334572 1.55983e-21)
(3.59939 -0.000280459 -1.46944e-21)
(3.59948 -0.00023498 0)
(3.59956 -0.00019679 -9.34417e-22)
(3.59963 -0.000164745 9.25183e-23)
(3.59969 -0.000137874 7.8744e-22)
(3.59974 -0.000115352 3.82038e-23)
(3.59978 -9.64849e-05 0)
(3.59981 -8.06851e-05 2.67913e-23)
(3.59984 -6.74587e-05 -3.35507e-22)
(3.59987 -5.63895e-05 5.25151e-23)
(3.59989 -4.71284e-05 4.42713e-23)
(3.59991 -3.93815e-05 2.38373e-22)
(3.59992 -3.29029e-05 0)
(3.59993 -2.74857e-05 1.42927e-22)
(3.59994 -2.2957e-05 -1.4287e-22)
(3.59995 -1.91716e-05 0)
(3.59996 -1.60081e-05 -8.57177e-23)
(3.59997 -1.33645e-05 1.57987e-22)
(3.59997 -1.1156e-05 -7.22748e-23)
(3.59998 -9.31085e-06 -3.46648e-24)
(3.59998 -7.76993e-06 0)
(3.59998 -6.48292e-06 0)
(3.59999 -5.40844e-06 0)
(3.59999 -4.51124e-06 2.61663e-23)
(3.59999 -3.76244e-06 -2.61557e-23)
(3.59999 -3.1373e-06 0)
(3.59999 -2.61574e-06 -7.90757e-24)
(3.59999 -2.18037e-06 2.11264e-24)
(3.59999 -1.81726e-06 1.02252e-24)
(3.6 -1.51417e-06 5.66494e-24)
(3.6 -1.2615e-06 0)
(3.6 -1.05063e-06 0)
(3.6 -8.74976e-07 0)
(3.6 -7.28502e-07 0)
(3.6 -6.0683e-07 2.11471e-24)
(3.6 -5.05394e-07 -2.35547e-24)
(3.6 -4.24582e-07 0)
(3.6 -3.55754e-07 0)
(3.6 -2.9818e-07 0)
(3.6 -2.49463e-07 -4.66612e-25)
(3.6 -2.08391e-07 4.66425e-25)
(3.6 -1.73365e-07 0)
(3.6 -1.43657e-07 0)
(3.6 -1.18045e-07 6.28303e-26)
(3.6 -9.61085e-08 0)
(3.6 -7.68678e-08 0)
(3.6 -6.00661e-08 0)
(3.6 -4.48819e-08 2.13018e-26)
(3.6 -3.11869e-08 -2.12933e-26)
(3.6 -1.82536e-08 0)
(3.6 -6.00797e-09 0)
(3.4335 -0.289104 1.505e-20)
(3.47631 -0.181298 -1.19062e-20)
(3.49856 -0.119066 9.63662e-21)
(3.51866 -0.0809062 -2.25395e-19)
(3.53494 -0.0567421 2.18665e-19)
(3.54797 -0.0405696 5.38313e-21)
(3.55817 -0.0295046 1.29175e-19)
(3.56611 -0.0217402 -1.2904e-19)
(3.57233 -0.0160421 0)
(3.5773 -0.0118491 7.45416e-20)
(3.5814 -0.00892068 -7.70061e-20)
(3.58475 -0.00697746 1.82531e-21)
(3.58742 -0.00557019 0)
(3.58958 -0.00446446 3.98592e-20)
(3.59135 -0.00357996 -7.25752e-20)
(3.59281 -0.00286911 5.03177e-21)
(3.59404 -0.0024777 2.95882e-20)
(3.59508 -0.00214761 0)
(3.59592 -0.00195471 -1.7507e-20)
(3.59659 -0.00174333 1.7489e-20)
(3.59714 -0.00152205 0)
(3.5976 -0.00130519 3.52099e-22)
(3.59799 -0.00109726 2.96603e-22)
(3.59831 -0.000924277 -2.54765e-22)
(3.59857 -0.000778707 -2.10471e-22)
(3.5988 -0.000655381 -5.4632e-21)
(3.59898 -0.000550947 9.87695e-21)
(3.59914 -0.000462663 -4.44578e-21)
(3.59928 -0.000388171 1.06128e-22)
(3.59939 -0.000325423 -8.94426e-23)
(3.59949 -0.000272645 0)
(3.59957 -0.000228305 0)
(3.59963 -0.000191089 0)
(3.59969 -0.00015988 0)
(3.59974 -0.000133723 5.65655e-22)
(3.59978 -0.000111814 -8.84134e-23)
(3.59982 -9.34716e-05 -4.76603e-22)
(3.59984 -7.81206e-05 -3.38485e-22)
(3.59987 -6.52775e-05 5.29106e-23)
(3.59989 -5.45358e-05 2.84945e-22)
(3.59991 -4.55538e-05 0)
(3.59992 -3.80452e-05 0)
(3.59993 -3.17693e-05 0)
(3.59994 -2.65249e-05 1.21246e-22)
(3.59995 -2.21429e-05 -1.28001e-22)
(3.59996 -1.84824e-05 9.19504e-23)
(3.59997 -1.54247e-05 -1.58705e-22)
(3.59997 -1.28713e-05 6.84437e-23)
(3.59998 -1.07389e-05 5.51864e-23)
(3.59998 -8.9587e-06 -8.02685e-24)
(3.59998 -7.47246e-06 -4.35411e-23)
(3.59999 -6.23208e-06 -3.10461e-23)
(3.59999 -5.19675e-06 3.10152e-23)
(3.59999 -4.33295e-06 -1.48957e-24)
(3.59999 -3.61208e-06 -1.25873e-24)
(3.59999 -3.01082e-06 -1.58247e-23)
(3.59999 -2.50911e-06 1.39978e-23)
(3.59999 -2.09077e-06 -6.42776e-24)
(3.6 -1.74174e-06 6.30549e-24)
(3.6 -1.4508e-06 3.5204e-24)
(3.6 -1.2081e-06 -4.52645e-24)
(3.6 -1.00594e-06 0)
(3.6 -8.37427e-07 0)
(3.6 -6.9743e-07 0)
(3.6 -5.83314e-07 -1.54842e-24)
(3.6 -4.89951e-07 1.58547e-24)
(3.6 -4.10537e-07 -1.73671e-25)
(3.6 -3.43979e-07 1.09603e-24)
(3.6 -2.87704e-07 -1.55911e-24)
(3.6 -2.40239e-07 3.57991e-25)
(3.6 -1.99814e-07 0)
(3.6 -1.65506e-07 2.01096e-25)
(3.6 -1.35981e-07 -6.29497e-25)
(3.6 -1.10667e-07 4.66432e-25)
(3.6 -8.85111e-08 -1.86591e-25)
(3.6 -6.91356e-08 0)
(3.6 -5.16706e-08 4.21865e-26)
(3.6 -3.58836e-08 -4.21456e-26)
(3.6 -2.10243e-08 -1.01932e-26)
(3.6 -6.92432e-09 0)
(3.46555 -0.297671 0)
(3.49279 -0.194227 -3.35767e-19)
(3.50839 -0.13054 3.35151e-19)
(3.52394 -0.0894922 2.26845e-19)
(3.53791 -0.0633413 -2.26429e-19)
(3.54972 -0.0456919 -1.5574e-19)
(3.55921 -0.0335449 2.8527e-19)
(3.56676 -0.0250071 -1.29578e-19)
(3.57277 -0.0188103 0)
(3.57761 -0.0141543 -7.43075e-20)
(3.58154 -0.0106199 1.41951e-19)
(3.58474 -0.00820296 -6.69081e-20)
(3.58739 -0.00633957 0)
(3.58956 -0.0049855 3.98189e-20)
(3.59133 -0.00399715 -7.47637e-20)
(3.59279 -0.00322119 3.37879e-20)
(3.59401 -0.00259461 -8.43972e-22)
(3.59501 -0.00213566 2.07875e-20)
(3.59584 -0.00188373 -2.07504e-20)
(3.59655 -0.00164041 0)
(3.59712 -0.00141174 0)
(3.5976 -0.0012281 -3.65795e-22)
(3.598 -0.00111194 -9.2926e-21)
(3.59831 -0.00097702 1.65346e-20)
(3.59858 -0.000843603 -7.33428e-21)
(3.5988 -0.000720779 -5.36655e-21)
(3.59899 -0.000611819 5.20244e-21)
(3.59915 -0.000517078 0)
(3.59928 -0.000435686 3.09723e-21)
(3.5994 -0.000366305 -3.10894e-21)
(3.59949 -0.000307471 0)
(3.59957 -0.000257766 1.91646e-21)
(3.59964 -0.000215888 -1.91312e-21)
(3.59969 -0.000180676 0)
(3.59974 -0.000151114 0)
(3.59978 -0.000126326 0)
(3.59982 -0.000105559 -2.77577e-23)
(3.59985 -8.81761e-05 0)
(3.59987 -7.36333e-05 2.88089e-22)
(3.59989 -6.14732e-05 -2.87594e-22)
(3.59991 -5.13095e-05 -6.86631e-24)
(3.59992 -4.28176e-05 0)
(3.59993 -3.57245e-05 -1.49846e-22)
(3.59994 -2.98015e-05 2.66848e-22)
(3.59995 -2.48565e-05 -1.14886e-22)
(3.59996 -2.0729e-05 -8.83191e-24)
(3.59997 -1.72842e-05 0)
(3.59997 -1.441e-05 6.36927e-23)
(3.59998 -1.2012e-05 -6.14552e-23)
(3.59998 -1.00119e-05 0)
(3.59998 -8.34356e-06 3.5664e-23)
(3.59999 -6.95247e-06 -3.6842e-23)
(3.59999 -5.79246e-06 -2.71605e-23)
(3.59999 -4.82547e-06 2.7746e-23)
(3.59999 -4.01928e-06 6.47676e-25)
(3.59999 -3.34742e-06 1.58384e-23)
(3.59999 -2.78735e-06 -1.48998e-23)
(3.59999 -2.32073e-06 3.9094e-25)
(3.6 -1.93179e-06 -1.02452e-23)
(3.6 -1.60784e-06 1.01293e-23)
(3.6 -1.33786e-06 4.68361e-25)
(3.6 -1.11313e-06 2.9205e-24)
(3.6 -9.25973e-07 -6.03959e-25)
(3.6 -7.70525e-07 -2.47392e-24)
(3.6 -6.44131e-07 -1.19843e-25)
(3.6 -5.40879e-07 2.05964e-25)
(3.6 -4.53921e-07 -1.19758e-24)
(3.6 -3.80837e-07 1.28393e-24)
(3.6 -3.18975e-07 0)
(3.6 -2.66665e-07 5.37385e-26)
(3.6 -2.2208e-07 -3.27485e-25)
(3.6 -1.84136e-07 9.12553e-26)
(3.6 -1.5147e-07 3.35695e-25)
(3.6 -1.23373e-07 -5.13909e-26)
(3.6 -9.87822e-08 -2.05357e-26)
(3.6 -7.71995e-08 5.71511e-26)
(3.6 -5.77579e-08 -1.10968e-25)
(3.6 -4.01159e-08 4.16442e-26)
(3.6 -2.3547e-08 5.15299e-27)
(3.6 -7.76255e-09 0)
(3.50402 -0.322295 -4.05351e-19)
(3.50846 -0.227552 4.04211e-19)
(3.51804 -0.155537 0)
(3.5295 -0.109506 0)
(3.54091 -0.0786244 -1.88641e-19)
(3.55142 -0.057362 1.88115e-19)
(3.56021 -0.0426006 1.30397e-19)
(3.56736 -0.0321716 -1.30035e-19)
(3.57314 -0.0246175 0)
(3.57784 -0.0190071 0)
(3.58168 -0.0147947 -6.51057e-20)
(3.58484 -0.0115336 6.49269e-20)
(3.58743 -0.00902468 0)
(3.58954 -0.00717615 0)
(3.59129 -0.00578062 0)
(3.59275 -0.0046722 0)
(3.59397 -0.00379226 0)
(3.59498 -0.00310857 0)
(3.59582 -0.00252762 -1.7611e-20)
(3.59652 -0.00207826 1.75637e-20)
(3.59709 -0.00172741 0)
(3.59756 -0.00146926 0)
(3.59796 -0.00129347 -9.07135e-21)
(3.5983 -0.00111251 1.3841e-21)
(3.59857 -0.000949365 7.64284e-21)
(3.5988 -0.000805709 0)
(3.59899 -0.000681339 4.59434e-21)
(3.59915 -0.000574759 -7.11583e-22)