/*--------------------------------*- C++ -*----------------------------------*\
  =========                 |
  \\      /  F ield         | OpenFOAM: The Open Source CFD Toolbox
   \\    /   O peration     | Website:  https://openfoam.org
    \\  /    A nd           | Version:  10
     \\/     M anipulation  |
\*---------------------------------------------------------------------------*/
FoamFile
{
    format      ascii;
    class       volVectorField;
    location    "2.64e-05";
    object      U_0;
}
// * * * * * * * * * * * * * * * * * * * * * * * * * * * * * * * * * * * * * //

dimensions      [0 1 -1 0 0 0 0];

internalField   nonuniform List<vector> 
7600
(
(4.55151 -2.23357 2.34857e-17)
(3.71298 -2.18833 1.12546e-17)
(3.7417 -1.59523 -1.93268e-17)
(3.70944 -1.24933 -1.66431e-17)
(3.69107 -1.00197 4.93214e-18)
(3.67715 -0.822694 -6.62315e-18)
(3.66667 -0.689298 0)
(3.65771 -0.590234 -4.19291e-18)
(3.65458 -0.515704 3.379e-18)
(3.57571 -0.53875 0)
(4.90234 -2.18437 -3.44617e-17)
(4.05278 -2.1376 -4.46795e-18)
(3.98934 -1.55717 1.88269e-17)
(3.90291 -1.21921 1.11317e-17)
(3.84559 -0.977616 7.29165e-18)
(3.80302 -0.802464 6.62401e-18)
(3.77046 -0.67159 0)
(3.74361 -0.572372 -2.88376e-18)
(3.72435 -0.489059 -5.33701e-20)
(3.64886 -0.489035 -2.23065e-18)
(5.23914 -2.07856 2.02353e-17)
(4.37986 -2.033 0)
(4.22743 -1.48025 -1.09889e-17)
(4.08898 -1.15869 8.03237e-18)
(3.99433 -0.928842 -1.33046e-17)
(3.92452 -0.76204 2.37132e-18)
(3.87145 -0.636935 -5.69264e-18)
(3.82922 -0.541147 6.2256e-18)
(3.7986 -0.458896 -2.13532e-18)
(3.72839 -0.458276 5.63395e-18)
(5.55529 -1.92086 -2.34085e-17)
(4.68729 -1.87829 0)
(4.45094 -1.36693 1.09903e-17)
(4.2636 -1.06968 -4.72717e-18)
(4.13396 -0.857201 3.05477e-18)
(4.03874 -0.702902 0)
(3.9667 -0.586948 2.3328e-18)
(3.91032 -0.497932 -2.0791e-18)
(3.86852 -0.421439 3.60343e-18)
(3.80025 -0.423674 -5.79104e-19)
(5.84291 -1.71526 -3.52276e-18)
(4.96712 -1.67706 5.74835e-18)
(4.65425 -1.21985 1.12309e-18)
(4.42238 -0.954279 -2.31131e-18)
(4.26095 -0.764479 0)
(4.1427 -0.6266 -1.31599e-18)
(4.05351 -0.522905 3.80944e-18)
(3.98426 -0.443274 -1.38604e-18)
(3.93182 -0.37496 -1.46802e-18)
(3.86477 -0.377991 -1.10419e-18)
(6.09506 -1.46696 1.30604e-17)
(5.21233 -1.43417 -4.84709e-18)
(4.83227 -1.04255 -3.31173e-18)
(4.56136 -0.815314 2.31164e-18)
(4.37211 -0.652959 0)
(4.23373 -0.535013 -7.57432e-19)
(4.12954 -0.446295 6.91541e-19)
(4.04897 -0.37819 -2.76795e-19)
(3.98702 -0.319842 3.69772e-20)
(3.92082 -0.322967 -2.91518e-19)
(6.3057 -1.18204 -5.45054e-18)
(5.41678 -1.1555 0)
(4.98051 -0.839335 0)
(4.67704 -0.65617 9.66486e-20)
(4.46462 -0.525368 1.76594e-19)
(4.3095 -0.430361 -9.12484e-20)
(4.19283 -0.358904 -9.22292e-20)
(4.1028 -0.304074 0)
(4.03283 -0.257136 -1.45409e-19)
(3.96731 -0.259925 -5.68584e-19)
(6.46987 -0.867384 -2.04979e-19)
(5.57525 -0.847744 1.73422e-19)
(5.0952 -0.615148 0)
(4.76646 -0.480747 -5.15321e-19)
(4.53612 -0.38483 -9.06176e-20)
(4.36806 -0.315183 0)
(4.24174 -0.262806 7.62736e-19)
(4.14438 -0.222631 6.64904e-19)
(4.06818 -0.188252 -7.07636e-19)
(4.00319 -0.190424 9.05418e-19)
(6.58378 -0.530425 0)
(5.68358 -0.518254 -9.95672e-20)
(5.17335 -0.375493 -1.57631e-19)
(4.82733 -0.293366 -4.52965e-19)
(4.58478 -0.234802 2.88616e-19)
(4.40793 -0.192288 0)
(4.27504 -0.160319 -3.46144e-19)
(4.17268 -0.135799 -3.56046e-19)
(4.09223 -0.114818 0)
(4.02761 -0.116183 2.61643e-19)
(6.64595 -0.178925 6.46642e-33)
(5.73854 -0.17488 -1.44879e-19)
(5.21276 -0.126323 4.86459e-19)
(4.85802 -0.0986866 2.30998e-19)
(4.60934 -0.0789943 -1.11383e-19)
(4.42806 -0.0646968 1.9698e-19)
(4.29188 -0.0539377 0)
(4.18701 -0.0456777 3.55881e-34)
(4.10441 -0.0386042 -1.62223e-19)
(4.04 -0.0390483 -1.10652e-19)
(2.14686 -0.17838 8.02694e-19)
(1.36209 -0.175318 -1.02014e-18)
(2.03084 -0.126885 -3.10153e-18)
(2.37224 -0.099074 -2.36798e-18)
(2.62191 -0.0793315 -3.91693e-19)
(2.80351 -0.0650994 8.22437e-19)
(2.94062 -0.0545226 0)
(3.04697 -0.0465041 9.22234e-34)
(3.13129 -0.0403276 -4.15918e-19)
(3.2017 -0.0356232 1.12129e-18)
(2.20265 -0.525444 0)
(1.41634 -0.513929 -2.02522e-18)
(2.0697 -0.373653 6.48387e-18)
(2.40255 -0.292481 1.13261e-18)
(2.64609 -0.234649 -3.79536e-18)
(2.82319 -0.192837 0)
(2.95686 -0.161691 2.46791e-18)
(3.0605 -0.138031 2.03914e-18)
(3.14243 -0.119804 0)
(3.21304 -0.105656 -7.33954e-19)
(2.31221 -0.86139 2.85281e-18)
(1.52322 -0.842089 -2.41286e-18)
(2.14695 -0.612606 0)
(2.46275 -0.47954 -1.17811e-17)
(2.69408 -0.384684 1.32536e-17)
(2.86224 -0.316071 0)
(2.98907 -0.264937 -7.29601e-18)
(3.08733 -0.22607 1.80972e-18)
(3.16449 -0.196204 -6.89549e-18)
(3.23537 -0.172199 -2.81608e-18)
(2.47277 -1.17547 -2.42396e-17)
(1.67991 -1.1489 0)
(2.2605 -0.83622 0)
(2.55129 -0.65465 1.39306e-17)
(2.7647 -0.525122 -1.13823e-17)
(2.91972 -0.431358 2.77269e-18)
(3.03649 -0.361417 2.29631e-18)
(3.12683 -0.308192 0)
(3.19698 -0.267434 3.33171e-18)
(3.26799 -0.232963 2.81563e-18)
(2.68026 -1.46017 4.7673e-17)
(1.88245 -1.42713 -1.60352e-17)
(2.40749 -1.03914 -1.17702e-17)
(2.66598 -0.813576 8.92512e-18)
(2.85623 -0.652541 0)
(2.99429 -0.535854 5.35312e-18)
(3.09809 -0.448696 -4.88727e-18)
(3.17819 -0.382231 -7.29402e-18)
(3.23922 -0.331534 -2.67995e-18)
(3.30989 -0.285762 5.59694e-18)
(2.92941 -1.70846 -3.43951e-17)
(2.12576 -1.67 1.31691e-17)
(2.58424 -1.21639 1.80696e-17)
(2.804 -0.95243 -8.92351e-18)
(2.96648 -0.763821 0)
(3.08423 -0.626992 5.11622e-18)
(3.17255 -0.52459 3.86072e-18)
(3.24039 -0.446223 -3.30878e-18)
(3.29044 -0.386636 -5.81864e-18)
(3.3598 -0.328458 -4.87176e-18)
(3.2139 -1.91425 -4.26928e-17)
(2.40371 -1.87166 0)
(2.78635 -1.3637 1.6203e-17)
(2.96193 -1.06785 -1.93664e-17)
(3.09278 -0.856286 1.94528e-17)
(3.18747 -0.702603 0)
(3.25831 -0.587287 -4.44456e-18)
(3.31239 -0.498536 4.05352e-18)
(3.35006 -0.431026 1.12504e-17)
(3.41626 -0.358888 3.38775e-19)
(3.52644 -2.07249 3.84782e-17)
(2.70939 -2.02732 7.94354e-18)
(3.00882 -1.47757 -2.13033e-17)
(3.1359 -1.1571 1.60989e-17)
(3.23204 -0.927767 -2.41437e-17)
(3.30155 -0.760992 -4.51592e-18)
(3.35358 -0.635489 -1.11851e-17)
(3.39319 -0.538078 1.93243e-17)
(3.41813 -0.463207 -5.43181e-18)
(3.47698 -0.373502 8.69576e-18)
(3.85891 -2.17929 -3.24482e-17)
(3.03505 -2.13328 6.07915e-18)
(3.24612 -1.55525 1.31542e-17)
(3.32157 -1.21801 1.38436e-17)
(3.38075 -0.9766 1.16407e-17)
(3.4236 -0.800972 8.42105e-18)
(3.4562 -0.668581 0)
(3.48211 -0.564984 4.91212e-18)
(3.49919 -0.482823 -9.58839e-18)
(3.54834 -0.377202 -4.1636e-18)
(4.20337 -2.23287 3.72883e-17)
(3.37415 -2.18884 -5.58498e-18)
(3.49325 -1.59584 -1.35792e-17)
(3.51486 -1.24968 -7.68311e-18)
(3.5354 -1.00198 -5.50964e-18)
(3.55031 -0.822035 -8.41977e-18)
(3.56269 -0.686901 0)
(3.57552 -0.58206 -5.48751e-18)
(3.59236 -0.500001 4.5194e-18)
(3.65254 -0.389069 0)
(3.30134 -0.0247616 1.22052e-19)
(3.40643 -0.0144224 -1.31542e-19)
(3.46456 -0.00921201 0)
(3.50103 -0.00624298 0)
(3.52517 -0.00444839 0)
(3.54205 -0.00328635 4.40246e-20)
(3.5543 -0.00249345 -4.12465e-20)
(3.56348 -0.00192978 0)
(3.57051 -0.00151629 -1.15766e-20)
(3.57599 -0.0012055 1.29042e-20)
(3.58032 -0.000967366 0)
(3.58379 -0.000782079 0)
(3.58659 -0.000636104 0)
(3.58886 -0.000519922 0)
(3.59073 -0.000426671 0)
(3.59226 -0.000351303 -3.34175e-21)
(3.59353 -0.000290035 5.32669e-22)
(3.59458 -0.000239987 2.81684e-21)
(3.59545 -0.000198941 0)
(3.59618 -0.000165165 0)
(3.59679 -0.000137292 0)
(3.5973 -0.000114239 -1.62599e-22)
(3.59773 -9.51334e-05 0)
(3.59808 -7.92752e-05 0)
(3.59839 -6.60946e-05 0)
(3.59864 -5.51277e-05 0)
(3.59885 -4.59946e-05 0)
(3.59903 -3.83833e-05 0)
(3.59918 -3.20365e-05 -4.16922e-22)
(3.59931 -2.67418e-05 6.77755e-22)
(3.59942 -2.23231e-05 -4.85767e-23)
(3.59951 -1.86348e-05 -2.62278e-22)
(3.59959 -1.55553e-05 0)
(3.59965 -1.2984e-05 0)
(3.59971 -1.08367e-05 0)
(3.59975 -9.04356e-06 -1.52583e-23)
(3.59979 -7.54611e-06 0)
(3.59982 -6.29576e-06 0)
(3.59985 -5.25168e-06 0)
(3.59987 -4.38005e-06 0)
(3.59989 -3.65234e-06 4.83601e-23)
(3.59991 -3.045e-06 -4.28884e-23)
(3.59992 -2.53807e-06 0)
(3.59994 -2.11514e-06 1.45585e-23)
(3.59995 -1.76222e-06 -1.45776e-23)
(3.59995 -1.46793e-06 0)
(3.59996 -1.22243e-06 -8.76469e-24)
(3.59997 -1.01782e-06 8.77618e-24)
(3.59997 -8.47196e-07 1.69392e-24)
(3.59998 -7.05088e-07 0)
(3.59998 -5.86623e-07 -4.45623e-24)
(3.59998 -4.8801e-07 4.46211e-24)
(3.59999 -4.05817e-07 -3.17819e-24)
(3.59999 -3.37443e-07 3.18239e-24)
(3.59999 -2.80457e-07 0)
(3.59999 -2.3309e-07 -1.91519e-24)
(3.59999 -1.93607e-07 1.91773e-24)
(3.59999 -1.60832e-07 1.36696e-24)
(3.6 -1.33513e-07 -1.36878e-24)
(3.6 -1.10874e-07 9.76009e-25)
(3.6 -9.20044e-08 -5.64914e-25)
(3.6 -7.64038e-08 -4.12948e-25)
(3.6 -6.34093e-08 1.59604e-25)
(3.6 -5.26877e-08 0)
(3.6 -4.37326e-08 0)
(3.6 -3.62246e-08 0)
(3.6 -3.0231e-08 0)
(3.6 -2.5295e-08 -1.26386e-25)
(3.6 -2.111e-08 1.26556e-25)
(3.6 -1.76033e-08 1.37837e-25)
(3.6 -1.45852e-08 -8.93937e-26)
(3.6 -1.20502e-08 -3.09996e-26)
(3.6 -9.84797e-09 5.65687e-26)
(3.6 -7.99106e-09 -2.55618e-26)
(3.6 -6.35739e-09 0)
(3.6 -4.95334e-09 0)
(3.6 -3.68247e-09 0)
(3.6 -2.55674e-09 0)
(3.6 -1.49381e-09 3.73189e-28)
(3.6 -5.02635e-10 -3.73701e-28)
(3.30658 -0.0737759 2.90224e-19)
(3.40925 -0.0430634 -2.48589e-19)
(3.46595 -0.0275621 -1.09217e-20)
(3.50178 -0.0187054 1.34144e-19)
(3.52561 -0.0133421 -1.18649e-19)
(3.54231 -0.00986341 -2.84513e-21)
(3.55448 -0.00748684 4.64365e-21)
(3.5636 -0.00579593 5.60389e-20)
(3.57059 -0.00455484 -5.61047e-20)
(3.57605 -0.00362163 -3.99907e-20)
(3.58037 -0.00290639 4.09114e-20)
(3.58382 -0.00234979 -2.69897e-20)
(3.58661 -0.00191122 2.70216e-20)
(3.58888 -0.00156213 0)
(3.59074 -0.00128193 -1.59471e-20)
(3.59227 -0.00105545 2.55273e-21)
(3.59354 -0.000871347 2.47207e-20)
(3.59459 -0.000720959 -1.06602e-20)
(3.59546 -0.000597621 -5.43317e-22)
(3.59619 -0.00049613 -6.76064e-21)
(3.59679 -0.000412383 1.06563e-21)
(3.5973 -0.000343117 5.87319e-21)
(3.59773 -0.000285717 4.06176e-21)
(3.59809 -0.000238074 -6.37752e-22)
(3.59839 -0.000198479 -3.43297e-21)
(3.59864 -0.000165535 2.6101e-21)
(3.59886 -0.000138102 -2.44749e-21)
(3.59903 -0.000115241 -1.74338e-21)
(3.59919 -9.61794e-05 3.23056e-22)
(3.59931 -8.02781e-05 1.47415e-21)
(3.59942 -6.70093e-05 0)
(3.59951 -5.59335e-05 0)
(3.59959 -4.66872e-05 -3.74568e-22)
(3.59965 -3.89666e-05 6.91362e-22)
(3.59971 -3.25202e-05 -3.16724e-22)
(3.59975 -2.71369e-05 1.53091e-23)
(3.59979 -2.2642e-05 0)
(3.59982 -1.88885e-05 -1.60892e-22)
(3.59985 -1.5755e-05 1.79488e-22)
(3.59987 -1.31386e-05 0)
(3.59989 -1.0955e-05 0)
(3.59991 -9.13214e-06 -5.55048e-24)
(3.59992 -7.61134e-06 -6.9059e-23)
(3.59994 -6.34206e-06 6.12466e-23)
(3.59995 -5.28365e-06 -4.92302e-23)
(3.59995 -4.40049e-06 4.92907e-23)
(3.59996 -3.66449e-06 0)
(3.59997 -3.05048e-06 0)
(3.59997 -2.53913e-06 -1.69783e-24)
(3.59998 -2.1126e-06 -2.11241e-23)
(3.59998 -1.75761e-06 3.31344e-24)
(3.59998 -1.46154e-06 3.29205e-23)
(3.59999 -1.21534e-06 -1.50803e-23)
(3.59999 -1.00999e-06 -1.45449e-24)
(3.59999 -8.39411e-07 0)
(3.59999 -6.97116e-07 3.83126e-24)
(3.59999 -5.79094e-07 -3.83603e-24)
(3.59999 -4.80588e-07 2.73407e-24)
(3.6 -3.99061e-07 -2.73749e-24)
(3.6 -3.3094e-07 0)
(3.6 -2.7472e-07 -4.46532e-25)
(3.6 -2.27656e-07 -1.39363e-24)
(3.6 -1.88937e-07 1.55443e-24)
(3.6 -1.56478e-07 0)
(3.6 -1.29885e-07 0)
(3.6 -1.07253e-07 -7.09876e-25)
(3.6 -8.95957e-08 7.10771e-25)
(3.6 -7.46115e-08 0)
(3.6 -6.24589e-08 0)
(3.6 -5.18224e-08 -4.85928e-26)
(3.6 -4.32294e-08 1.49066e-25)
(3.6 -3.55126e-08 -2.73096e-25)
(3.6 -2.93523e-08 7.80469e-26)
(3.6 -2.36175e-08 1.02098e-25)
(3.6 -1.90652e-08 0)
(3.6 -1.46376e-08 -2.89461e-26)
(3.6 -1.11384e-08 0)
(3.6 -7.51009e-09 0)
(3.6 -4.59786e-09 1.48991e-27)
(3.6 -1.34914e-09 -1.49182e-27)
(3.31693 -0.121259 -1.87434e-20)
(3.41482 -0.0710952 -1.4202e-20)
(3.46871 -0.0456903 -2.82708e-19)
(3.50328 -0.0310972 3.07159e-19)
(3.52647 -0.0222272 -7.0531e-21)
(3.54284 -0.0164539 -1.77757e-19)
(3.55482 -0.0125001 3.45146e-20)
(3.56384 -0.00968217 1.36804e-19)
(3.57076 -0.00761154 6.3758e-21)
(3.57617 -0.00605335 5.29975e-21)
(3.58046 -0.00485849 -2.21815e-21)
(3.58389 -0.00392828 3.69243e-21)
(3.58667 -0.00319516 -4.24662e-20)
(3.58893 -0.00261151 4.81983e-20)
(3.59078 -0.00214299 2.17771e-21)
(3.5923 -0.00176429 -2.70138e-20)
(3.59356 -0.00145642 2.70419e-20)
(3.5946 -0.00120494 6.46475e-22)
(3.59547 -0.00099871 1.64146e-21)
(3.5962 -0.000829015 -9.21479e-22)
(3.5968 -0.000688997 -7.77115e-22)
(3.59731 -0.000573201 -6.55579e-22)
(3.59774 -0.000477252 -5.53191e-22)
(3.59809 -0.000397621 0)
(3.59839 -0.000331448 0)
(3.59865 -0.000276398 -1.66908e-22)
(3.59886 -0.000230562 0)
(3.59904 -0.000192369 0)
(3.59919 -0.000160529 0)
(3.59932 -0.000133971 1.24966e-21)
(3.59942 -0.000111812 -1.25098e-21)
(3.59951 -9.33186e-05 0)
(3.59959 -7.78817e-05 0)
(3.59965 -6.4994e-05 0)
(3.59971 -5.42345e-05 0)
(3.59975 -4.52507e-05 4.53004e-22)
(3.59979 -3.77505e-05 -7.0997e-23)
(3.59982 -3.14883e-05 -7.0583e-22)
(3.59985 -2.6261e-05 3.04766e-22)
(3.59988 -2.18973e-05 2.30186e-22)
(3.59989 -1.82555e-05 -3.61008e-23)
(3.59991 -1.52161e-05 -3.58593e-22)
(3.59993 -1.26804e-05 1.64231e-22)
(3.59994 -1.05646e-05 7.93985e-24)
(3.59995 -8.80032e-06 1.12052e-22)
(3.59996 -7.3286e-06 -1.82115e-22)
(3.59996 -6.10198e-06 8.34036e-23)
(3.59997 -5.07909e-06 0)
(3.59997 -4.22704e-06 0)
(3.59998 -3.51667e-06 -1.543e-23)
(3.59998 -2.92527e-06 2.11787e-23)
(3.59998 -2.43233e-06 0)
(3.59999 -2.02223e-06 0)
(3.59999 -1.68047e-06 1.46005e-24)
(3.59999 -1.39638e-06 2.4565e-24)
(3.59999 -1.15966e-06 0)
(3.59999 -9.63104e-07 6.47459e-24)
(3.59999 -7.99304e-07 -1.01281e-24)
(3.6 -6.63508e-07 -4.22485e-24)
(3.6 -5.50291e-07 0)
(3.6 -4.56608e-07 -2.84946e-24)
(3.6 -3.78429e-07 3.30078e-24)
(3.6 -3.13885e-07 -3.1959e-25)
(3.6 -2.60017e-07 5.37878e-25)
(3.6 -2.15672e-07 0)
(3.6 -1.78327e-07 0)
(3.6 -1.48865e-07 0)
(3.6 -1.24108e-07 2.73194e-25)
(3.6 -1.0377e-07 4.24239e-25)
(3.6 -8.62539e-08 -6.87585e-26)
(3.6 -7.18359e-08 -6.53771e-25)
(3.6 -5.91802e-08 5.07135e-26)
(3.6 -4.87895e-08 1.91263e-25)
(3.6 -3.94215e-08 0)
(3.6 -3.1699e-08 -6.57256e-26)
(3.6 -2.44942e-08 9.47492e-26)
(3.6 -1.85037e-08 0)
(3.6 -1.26195e-08 1.20236e-26)
(3.6 -7.59558e-09 -1.2037e-26)
(3.6 -2.35878e-09 0)
(3.33213 -0.166174 -3.62129e-20)
(3.423 -0.0981196 0)
(3.4728 -0.0634474 -4.41104e-20)
(3.50549 -0.0433717 -2.54057e-19)
(3.52774 -0.0310992 2.40163e-19)
(3.54363 -0.0230683 1.01673e-22)
(3.55534 -0.0175477 -1.47578e-19)
(3.56419 -0.013603 1.63425e-20)
(3.57101 -0.0106994 1.07692e-19)
(3.57636 -0.00851183 -1.07384e-20)
(3.5806 -0.00683298 6.57317e-20)
(3.584 -0.00552525 -1.2824e-19)
(3.58675 -0.0044942 9.79387e-20)
(3.58899 -0.00367317 -5.13488e-20)
(3.59083 -0.00301398 -2.21035e-21)
(3.59234 -0.00248112 -1.84897e-21)
(3.59359 -0.00204793 -1.55561e-21)
(3.59463 -0.00169408 1.8033e-20)
(3.59549 -0.00140391 -4.16974e-21)
(3.59622 -0.00116518 -1.53823e-20)
(3.59682 -0.000968214 -1.15856e-20)
(3.59732 -0.000805344 1.2263e-20)
(3.59775 -0.00067041 8.80825e-21)
(3.5981 -0.000558444 -1.52145e-20)
(3.5984 -0.000465415 1.0916e-21)
(3.59865 -0.000388037 5.87886e-21)
(3.59886 -0.000323622 0)
(3.59904 -0.00026996 3.53311e-21)
(3.59919 -0.00022523 -6.51867e-21)
(3.59932 -0.00018793 2.98511e-21)
(3.59943 -0.000156815 -1.43756e-22)
(3.59952 -0.000130851 0)
(3.59959 -0.000109184 -1.51503e-21)
(3.59966 -9.10978e-05 2.70877e-21)
(3.59971 -7.60016e-05 -2.73369e-22)
(3.59975 -6.33996e-05 -1.14219e-21)
(3.59979 -5.28807e-05 3.84664e-22)
(3.59983 -4.41002e-05 -3.84981e-22)
(3.59985 -3.6772e-05 -2.74059e-22)
(3.59988 -3.06558e-05 4.29697e-23)
(3.5999 -2.55526e-05 2.31507e-22)
(3.59991 -2.12943e-05 1.64775e-22)
(3.59993 -1.77423e-05 -1.46103e-22)
(3.59994 -1.47794e-05 1.58731e-23)
(3.59995 -1.23089e-05 8.55866e-23)
(3.59996 -1.02487e-05 -9.9132e-23)
(3.59996 -8.53178e-06 9.54077e-24)
(3.59997 -7.10043e-06 0)
(3.59997 -5.90821e-06 6.79523e-24)
(3.59998 -4.91457e-06 3.66439e-23)
(3.59998 -4.08736e-06 -4.24437e-23)
(3.59998 -3.39812e-06 0)
(3.59999 -2.82469e-06 0)
(3.59999 -2.34702e-06 1.8616e-23)
(3.59999 -1.9499e-06 -2.40146e-23)
(3.59999 -1.61918e-06 0)
(3.59999 -1.34449e-06 0)
(3.59999 -1.11575e-06 -5.46979e-24)
(3.6 -9.25999e-07 -4.00443e-25)
(3.6 -7.67954e-07 5.67787e-24)
(3.6 -6.37053e-07 0)
(3.6 -5.27964e-07 0)
(3.6 -4.3778e-07 0)
(3.6 -3.62662e-07 -5.39637e-25)
(3.6 -3.00702e-07 1.67646e-24)
(3.6 -2.49009e-07 1.20011e-25)
(3.6 -2.0787e-07 -2.61021e-24)
(3.6 -1.73392e-07 -8.48859e-26)
(3.6 -1.44913e-07 1.00675e-24)
(3.6 -1.20537e-07 0)
(3.6 -1.00325e-07 0)
(3.6 -8.2741e-08 0)
(3.6 -6.81451e-08 0)
(3.6 -5.51506e-08 1.64455e-25)
(3.6 -4.42801e-08 -1.64595e-25)
(3.6 -3.43024e-08 -5.03582e-26)
(3.6 -2.58406e-08 5.04012e-26)
(3.6 -1.77026e-08 -1.19567e-26)
(3.6 -1.05885e-08 1.19669e-26)
(3.6 -3.35168e-09 0)
(3.35181 -0.207453 3.71059e-20)
(3.43355 -0.123751 7.78362e-19)
(3.47815 -0.0806828 -7.84115e-19)
(3.5084 -0.0554832 -5.13354e-19)
(3.52942 -0.039956 5.28037e-19)
(3.54467 -0.0297194 -3.28756e-19)
(3.55602 -0.0226463 6.20762e-19)
(3.56465 -0.0175748 -2.7228e-19)
(3.57134 -0.013833 0)
(3.5766 -0.0110095 1.70806e-19)
(3.58078 -0.00884019 -2.26713e-19)
(3.58414 -0.00714918 1.26372e-19)
(3.58686 -0.00581527 -5.58312e-20)
(3.58907 -0.00475271 2.67328e-21)
(3.59089 -0.00389944 3.29416e-20)
(3.59239 -0.00320961 -3.37746e-21)
(3.59364 -0.00264878 -2.61225e-20)
(3.59467 -0.00219071 0)
(3.59552 -0.0018151 0)
(3.59624 -0.0015061 0)
(3.59684 -0.00125121 7.98485e-22)
(3.59734 -0.00104048 0)
(3.59776 -0.000865925 8.35059e-21)
(3.59811 -0.000721116 -1.53993e-20)
(3.59841 -0.000600828 1.29915e-20)
(3.59866 -0.000500801 -5.94646e-21)
(3.59887 -0.000417553 -4.23195e-21)
(3.59905 -0.00034822 6.62759e-22)
(3.5992 -0.000290444 6.58703e-21)
(3.59932 -0.000242277 -3.01543e-21)
(3.59943 -0.000202107 1.45934e-22)
(3.59952 -0.000168599 0)
(3.59959 -0.000140642 0)
(3.59966 -0.000117313 5.2688e-25)
(3.59971 -9.78462e-05 7.40238e-23)
(3.59976 -8.16002e-05 6.24668e-23)
(3.59979 -6.80434e-05 0)
(3.59983 -5.67302e-05 0)
(3.59985 -4.7291e-05 0)
(3.59988 -3.94151e-05 4.65698e-22)
(3.5999 -3.28453e-05 -7.30174e-23)
(3.59991 -2.73648e-05 -3.70713e-22)
(3.59993 -2.27947e-05 2.60658e-22)
(3.59994 -1.89834e-05 -2.95866e-22)
(3.59995 -1.58064e-05 -8.60786e-23)
(3.59996 -1.31577e-05 9.95807e-23)
(3.59996 -1.09509e-05 -8.04747e-23)
(3.59997 -9.1117e-06 1.38715e-22)
(3.59997 -7.58006e-06 -7.34657e-23)
(3.59998 -6.30392e-06 5.7484e-24)
(3.59998 -5.24171e-06 0)
(3.59998 -4.35696e-06 0)
(3.59999 -3.62097e-06 3.45257e-24)
(3.59999 -3.0081e-06 2.44951e-23)
(3.59999 -2.49864e-06 -3.37661e-24)
(3.59999 -2.0745e-06 -3.14886e-23)
(3.59999 -1.72226e-06 2.83281e-23)
(3.59999 -1.42903e-06 -2.39116e-23)
(3.6 -1.18579e-06 1.09479e-23)
(3.6 -9.83279e-07 -1.06067e-24)
(3.6 -8.15517e-07 0)
(3.6 -6.75788e-07 7.50962e-25)
(3.6 -5.60239e-07 -2.34728e-24)
(3.6 -4.64071e-07 2.34848e-24)
(3.6 -3.84706e-07 -4.5192e-25)
(3.6 -3.1918e-07 1.02742e-24)
(3.6 -2.66547e-07 -1.41225e-24)
(3.6 -2.22397e-07 1.00243e-24)
(3.6 -1.85854e-07 -1.84567e-24)
(3.6 -1.54626e-07 1.74125e-24)
(3.6 -1.28678e-07 -7.06896e-25)
(3.6 -1.06163e-07 0)
(3.6 -8.74115e-08 3.11747e-25)
(3.6 -7.07825e-08 -2.01499e-25)
(3.6 -5.68085e-08 -1.29994e-25)
(3.6 -4.40468e-08 1.86933e-25)
(3.6 -3.31529e-08 0)
(3.6 -2.27484e-08 -1.7859e-26)
(3.6 -1.35853e-08 8.59476e-27)
(3.6 -4.32445e-09 -2.92956e-27)
(3.37545 -0.243976 -3.50405e-20)
(3.44619 -0.147626 -7.80039e-19)
(3.48467 -0.097245 8.08738e-19)
(3.51195 -0.0673874 0)
(3.53148 -0.0487992 -1.44287e-20)
(3.54595 -0.0364237 0)
(3.55686 -0.0278159 -2.85218e-19)
(3.56523 -0.0216165 5.21129e-19)
(3.57175 -0.0170291 -2.29261e-19)
(3.5769 -0.0135605 -1.63061e-19)
(3.581 -0.0108919 1.67635e-19)
(3.58431 -0.00880978 0)
(3.58699 -0.00716626 9.52958e-20)
(3.58918 -0.00585652 -9.80096e-20)
(3.59098 -0.00480449 -6.712e-20)
(3.59246 -0.00395386 1.26205e-20)
(3.59369 -0.0032623 5.80233e-20)
(3.59471 -0.00269746 0)
(3.59556 -0.00223436 1.1365e-21)
(3.59627 -0.00185345 2.83307e-20)
(3.59686 -0.0015393 -2.83334e-20)
(3.59736 -0.00127964 6.79851e-22)
(3.59778 -0.00106462 -8.48351e-21)
(3.59813 -0.000886283 1.8139e-21)
(3.59842 -0.000738191 1.12128e-21)
(3.59867 -0.000615084 9.45154e-22)
(3.59888 -0.00051266 5.08903e-21)
(3.59906 -0.000427384 -2.44548e-22)
(3.5992 -0.000356348 0)
(3.59933 -0.000297146 1.74012e-22)
(3.59943 -0.000247793 2.17334e-21)
(3.59952 -0.000206637 -4.00689e-21)
(3.5996 -0.000172312 1.72907e-21)
(3.59966 -0.000143681 -1.21576e-21)
(3.59971 -0.000119797 2.47931e-21)
(3.59976 -9.98722e-05 -2.02858e-21)
(3.5998 -8.32515e-05 1.45391e-22)
(3.59983 -6.93866e-05 1.22652e-22)
(3.59985 -5.78223e-05 6.60306e-22)
(3.59988 -4.81768e-05 4.69618e-22)
(3.5999 -4.01336e-05 -4.69663e-22)
(3.59991 -3.34265e-05 -2.27286e-23)
(3.59993 -2.78352e-05 0)
(3.59994 -2.31741e-05 0)
(3.59995 -1.92899e-05 -2.13916e-22)
(3.59996 -1.60528e-05 2.00304e-22)
(3.59996 -1.33566e-05 0)
(3.59997 -1.11102e-05 -1.28274e-22)
(3.59997 -9.24002e-06 1.27004e-22)
(3.59998 -7.68237e-06 -5.81308e-24)
(3.59998 -6.3862e-06 -3.60139e-23)
(3.59998 -5.30694e-06 3.60174e-23)
(3.59999 -4.40937e-06 2.21301e-23)
(3.59999 -3.66221e-06 -2.56197e-23)
(3.59999 -3.04125e-06 -1.82266e-23)
(3.59999 -2.52448e-06 7.59378e-25)
(3.59999 -2.09537e-06 2.40501e-24)
(3.59999 -1.7383e-06 1.29738e-23)
(3.6 -1.44211e-06 0)
(3.6 -1.19563e-06 7.79486e-24)
(3.6 -9.91429e-07 -7.79562e-24)
(3.6 -8.21439e-07 -7.55659e-25)
(3.6 -6.8084e-07 0)
(3.6 -5.63921e-07 0)
(3.6 -4.67339e-07 -2.88205e-24)
(3.6 -3.88741e-07 3.33655e-24)
(3.6 -3.24784e-07 0)
(3.6 -2.71062e-07 0)
(3.6 -2.26508e-07 -8.38586e-25)
(3.6 -1.88482e-07 6.4655e-25)
(3.6 -1.56827e-07 5.86407e-25)
(3.6 -1.29422e-07 -5.86464e-25)
(3.6 -1.06534e-07 -1.10535e-25)
(3.6 -8.63038e-08 1.62239e-25)
(3.6 -6.92411e-08 -3.33044e-26)
(3.6 -5.37243e-08 -1.85859e-25)
(3.6 -4.04092e-08 0)
(3.6 -2.77649e-08 2.97139e-26)
(3.6 -1.65552e-08 -2.33242e-26)
(3.6 -5.29121e-09 5.79914e-27)
(3.40246 -0.274543 1.08925e-18)
(3.46051 -0.169397 -1.04563e-18)
(3.49224 -0.112977 2.22119e-20)
(3.51609 -0.0790395 -5.29189e-19)
(3.53388 -0.0576341 9.60799e-19)
(3.54745 -0.0432021 -4.1934e-19)
(3.55785 -0.0330804 0)
(3.56591 -0.0257509 0)
(3.57223 -0.0203075 -6.87577e-21)
(3.57725 -0.0161816 1.61221e-19)
(3.58127 -0.013002 -1.71634e-19)
(3.58451 -0.0105183 1.16498e-19)
(3.58715 -0.0085563 -1.16451e-19)
(3.5893 -0.00699198 2.79138e-21)
(3.59108 -0.00573507 0)
(3.59254 -0.00471865 -1.96683e-21)
(3.59375 -0.00389227 -1.65312e-21)
(3.59476 -0.00321737 0)
(3.5956 -0.00266411 -1.17e-21)
(3.59631 -0.00220913 0)
(3.59689 -0.001834 0)
(3.59739 -0.00152402 -6.98826e-22)
(3.5978 -0.00126742 0)
(3.59815 -0.00105467 -9.8846e-22)
(3.59844 -0.000878071 -1.22902e-20)
(3.59868 -0.000731323 2.22961e-20)
(3.59889 -0.000609279 -1.6219e-21)
(3.59906 -0.000507711 -8.48027e-21)
(3.59921 -0.00042314 -3.10424e-21)
(3.59933 -0.000352689 2.92483e-21)
(3.59944 -0.000293982 0)
(3.59953 -0.000245049 1.86038e-21)
(3.5996 -0.000204256 -1.844e-22)
(3.59966 -0.000170244 -1.56782e-21)
(3.59972 -0.000141884 -7.58906e-23)
(3.59976 -0.000118237 0)
(3.5998 -9.85187e-05 -5.34684e-23)
(3.59983 -8.20775e-05 6.67776e-22)
(3.59986 -6.83703e-05 -1.04621e-22)
(3.59988 -5.69425e-05 -8.82033e-23)
(3.5999 -4.74171e-05 -4.74261e-22)
(3.59991 -3.94775e-05 0)
(3.59993 -3.28616e-05 -2.84081e-22)
(3.59994 -2.73485e-05 2.83966e-22)
(3.59995 -2.27563e-05 0)
(3.59996 -1.89308e-05 1.70068e-22)
(3.59996 -1.57455e-05 -3.13332e-22)
(3.59997 -1.30929e-05 1.43275e-22)
(3.59997 -1.08853e-05 6.87004e-24)
(3.59998 -9.0474e-06 0)
(3.59998 -7.51848e-06 0)
(3.59998 -6.24601e-06 0)
(3.59999 -5.18802e-06 -5.13932e-23)
(3.59999 -4.30775e-06 5.13725e-23)
(3.59999 -3.57631e-06 0)
(3.59999 -2.9679e-06 1.53987e-23)
(3.59999 -2.46275e-06 -4.15936e-24)
(3.59999 -2.04265e-06 -2.02929e-24)
(3.6 -1.69417e-06 -1.09457e-23)
(3.6 -1.40436e-06 0)
(3.6 -1.16421e-06 0)
(3.6 -9.64456e-07 0)
(3.6 -7.99168e-07 0)
(3.6 -6.61887e-07 -3.9431e-24)
(3.6 -5.48551e-07 4.39e-24)
(3.6 -4.57602e-07 0)
(3.6 -3.82461e-07 0)
(3.6 -3.19324e-07 0)
(3.6 -2.66788e-07 8.33575e-25)
(3.6 -2.22071e-07 -8.33241e-25)
(3.6 -1.84709e-07 0)
(3.6 -1.52503e-07 0)
(3.6 -1.25465e-07 -1.08448e-25)
(3.6 -1.01714e-07 0)
(3.6 -8.15419e-08 0)
(3.6 -6.33434e-08 0)
(3.6 -4.75806e-08 -3.5673e-26)
(3.6 -3.27662e-08 3.56587e-26)
(3.6 -1.94799e-08 0)
(3.6 -6.2588e-09 0)
(3.4321 -0.297842 -3.59817e-20)
(3.47605 -0.189028 2.88427e-20)
(3.5007 -0.127809 -2.32248e-20)
(3.52074 -0.0904474 5.40512e-19)
(3.5366 -0.0665051 -5.2462e-19)
(3.54916 -0.0501033 -1.2554e-20)
(3.55897 -0.0384838 -2.99908e-19)
(3.56669 -0.0300152 2.99595e-19)
(3.57279 -0.023699 0)
(3.57765 -0.0188978 -1.66017e-19)
(3.58157 -0.0151907 1.71653e-19)
(3.58474 -0.012291 -4.05334e-21)
(3.58733 -0.00999846 0)
(3.58944 -0.00816954 -8.41469e-20)
(3.59119 -0.00669956 1.52284e-19)
(3.59263 -0.00551065 -1.12378e-20)
(3.59383 -0.00454404 -6.09197e-20)
(3.59482 -0.0037547 0)
(3.59565 -0.00310775 3.52504e-20)
(3.59635 -0.00257587 -3.52141e-20)
(3.59693 -0.00213747 0)
(3.59741 -0.00177535 -7.09504e-22)
(3.59782 -0.0014757 -5.9748e-22)
(3.59817 -0.00122738 5.07934e-22)
(3.59845 -0.00102134 4.23886e-22)
(3.5987 -0.000850212 1.09455e-20)
(3.5989 -0.000707962 -1.9793e-20)
(3.59907 -0.000589639 8.90884e-21)
(3.59922 -0.000491165 -2.13547e-22)
(3.59934 -0.000409177 1.79921e-22)
(3.59944 -0.000340892 0)
(3.59953 -0.000284006 0)
(3.5996 -0.000236607 0)
(3.59967 -0.000197109 0)
(3.59972 -0.000164192 -1.1322e-21)
(3.59976 -0.000136759 1.77231e-22)
(3.5998 -0.000113896 9.53396e-22)
(3.59983 -9.48433e-05 6.76878e-22)
(3.59986 -7.89666e-05 -1.06017e-22)
(3.59988 -6.57371e-05 -5.69603e-22)
(3.5999 -5.47154e-05 0)
(3.59991 -4.55333e-05 0)
(3.59993 -3.78856e-05 0)
(3.59994 -3.15161e-05 -2.41727e-22)
(3.59995 -2.62129e-05 2.55216e-22)
(3.59996 -2.17973e-05 -1.8304e-22)
(3.59996 -1.81224e-05 3.15728e-22)
(3.59997 -1.50635e-05 -1.36077e-22)
(3.59997 -1.25188e-05 -1.09439e-22)
(3.59998 -1.04013e-05 1.60557e-23)
(3.59998 -8.6404e-06 8.62115e-23)
(3.59998 -7.17561e-06 6.12318e-23)
(3.59999 -5.95813e-06 -6.11709e-23)
(3.59999 -4.94567e-06 2.92947e-24)
(3.59999 -4.10462e-06 2.46802e-24)
(3.59999 -3.40539e-06 3.08512e-23)
(3.59999 -2.82496e-06 -2.72965e-23)
(3.59999 -2.34251e-06 1.24319e-23)
(3.6 -1.94236e-06 -1.2189e-23)
(3.6 -1.60977e-06 -6.73455e-24)
(3.6 -1.33416e-06 8.66004e-24)
(3.6 -1.10505e-06 0)
(3.6 -9.15447e-07 0)
(3.6 -7.58109e-07 0)
(3.6 -6.30109e-07 2.86016e-24)
(3.6 -5.26361e-07 -2.93251e-24)
(3.6 -4.40064e-07 3.16529e-25)
(3.6 -3.67497e-07 -1.97296e-24)
(3.6 -3.06985e-07 2.7987e-24)
(3.6 -2.5556e-07 -6.39555e-25)
(3.6 -2.12505e-07 0)
(3.6 -1.75487e-07 -3.48098e-25)
(3.6 -1.4432e-07 1.08613e-24)
(3.6 -1.17042e-07 -7.97752e-25)
(3.6 -9.37859e-08 3.17743e-25)
(3.6 -7.29035e-08 0)
(3.6 -5.47205e-08 -7.04357e-26)
(3.6 -3.77352e-08 7.03674e-26)
(3.6 -2.23887e-08 1.68662e-26)
(3.6 -7.21246e-09 0)
(3.46278 -0.31119 0)
(3.49223 -0.202421 8.25445e-19)
(3.50993 -0.140509 -8.23934e-19)
(3.52584 -0.100908 -5.54823e-19)
(3.5396 -0.0750134 5.53809e-19)
(3.55105 -0.0568931 3.75209e-19)
(3.56023 -0.0438837 -6.8458e-19)
(3.56755 -0.0343201 3.09491e-19)
(3.57341 -0.0271458 0)
(3.57811 -0.0216707 1.7178e-19)
(3.58191 -0.0174314 -3.25992e-19)
(3.585 -0.0141091 1.52413e-19)
(3.58753 -0.0114787 0)
(3.5896 -0.00937845 -8.70116e-20)
(3.59132 -0.00768939 1.62322e-19)
(3.59273 -0.00632287 -7.2845e-20)
(3.59391 -0.00521172 1.75455e-21)
(3.59489 -0.00430439 -4.32287e-20)
(3.59571 -0.00356087 4.31516e-20)
(3.59639 -0.00294978 0)
(3.59697 -0.00244628 0)
(3.59745 -0.00203057 7.37101e-22)
(3.59785 -0.00168675 1.88236e-20)
(3.59819 -0.00140197 -3.34922e-20)
(3.59847 -0.00116583 1.48546e-20)
(3.59871 -0.000969817 1.08562e-20)
(3.59891 -0.00080699 -1.05257e-20)
(3.59909 -0.00067164 0)
(3.59923 -0.000559074 -6.25695e-21)
(3.59935 -0.000465417 6.28052e-21)
(3.59945 -0.000387469 0)
(3.59954 -0.000322579 -3.86529e-21)
(3.59961 -0.000268551 3.85857e-21)
(3.59967 -0.00022356 0)
(3.59972 -0.000186094 0)
(3.59977 -0.000154891 0)
(3.5998 -0.000128907 5.56941e-23)
(3.59983 -0.000107268 0)
(3.59986 -8.92493e-05 -5.78838e-22)
(3.59988 -7.42459e-05 5.77844e-22)
(3.5999 -6.17553e-05 1.38221e-23)
(3.59992 -5.1357e-05 0)
(3.59993 -4.27025e-05 3.00238e-22)
(3.59994 -3.54997e-05 -5.34394e-22)
(3.59995 -2.95067e-05 2.29996e-22)
(3.59996 -2.45204e-05 1.76424e-23)
(3.59996 -2.03732e-05 0)
(3.59997 -1.69237e-05 -1.26859e-22)
(3.59997 -1.40559e-05 1.2242e-22)
(3.59998 -1.16712e-05 0)
(3.59998 -9.68944e-06 -7.06481e-23)
(3.59998 -8.04206e-06 7.29885e-23)
(3.59999 -6.67361e-06 5.3548e-23)
(3.59999 -5.53643e-06 -5.46903e-23)
(3.59999 -4.59227e-06 -1.26753e-24)
(3.59999 -3.80793e-06 -3.09135e-23)
(3.59999 -3.15713e-06 2.90863e-23)
(3.59999 -2.61662e-06 -7.56951e-25)
(3.6 -2.16846e-06 1.97234e-23)
(3.6 -1.79629e-06 -1.94941e-23)
(3.6 -1.48795e-06 -8.93579e-25)
(3.6 -1.23188e-06 -5.51823e-24)
(3.6 -1.01995e-06 1.17378e-24)
(3.6 -8.44276e-07 4.64069e-24)
(3.6 -7.02546e-07 2.22025e-25)
(3.6 -5.87469e-07 -3.78709e-25)
(3.6 -4.91604e-07 2.17057e-24)
(3.6 -4.10914e-07 -2.32819e-24)
(3.6 -3.43424e-07 0)
(3.6 -2.86124e-07 -9.54259e-26)
(3.6 -2.37995e-07 5.7135e-25)
(3.6 -1.96701e-07 -1.63694e-25)
(3.6 -1.61787e-07 -5.79664e-25)
(3.6 -1.3133e-07 8.76988e-26)
(3.6 -1.05225e-07 3.46418e-26)
(3.6 -8.18906e-08 -9.56171e-26)
(3.6 -6.14351e-08 1.85155e-25)
(3.6 -4.24418e-08 -6.92837e-26)
(3.6 -2.51212e-08 -8.55648e-27)
(3.6 -8.13109e-09 0)
(3.49943 -0.347362 1.00169e-18)
(3.50823 -0.234709 -9.98876e-19)
(3.51895 -0.16552 0)
(3.53114 -0.120317 0)
(3.54272 -0.0895367 4.72567e-19)
(3.55304 -0.0677369 -4.71249e-19)
(3.56157 -0.0520833 -3.2279e-19)
(3.56848 -0.0406082 3.21894e-19)
(3.57407 -0.0320306 0)
(3.5786 -0.0255081 0)
(3.58228 -0.0204752 1.54668e-19)
(3.58528 -0.0165433 -1.54244e-19)
(3.58775 -0.0134389 0)
(3.58978 -0.0109663 0)
(3.59145 -0.00898204 0)
(3.59284 -0.00737967 0)
(3.594 -0.0060788 0)
(3.59496 -0.00501799 0)
(3.59577 -0.00414969 3.76713e-20)
(3.59644 -0.00343671 -3.75702e-20)
(3.59701 -0.00284971 0)
(3.59748 -0.00236536 0)
(3.59788 -0.00196495 1.88037e-20)
(3.59821 -0.00163344 -2.94184e-21)
(3.59849 -0.0013586 -1.577e-20)
(3.59873 -0.00113051 0)
(3.59893 -0.000941037 -9.40619e-21)
(3.5991 -0.000783538 1.46992e-21)
(3.59924 -0.000652536 7.89079e-21)