/*--------------------------------*- C++ -*----------------------------------*\
  =========                 |
  \\      /  F ield         | OpenFOAM: The Open Source CFD Toolbox
   \\    /   O peration     | Website:  https://openfoam.org
    \\  /    A nd           | Version:  10
     \\/     M anipulation  |
\*---------------------------------------------------------------------------*/
FoamFile
{
    format      ascii;
    class       volScalarField;
    location    "5";
    object      nut;
}
// * * * * * * * * * * * * * * * * * * * * * * * * * * * * * * * * * * * * * //

dimensions      [0 2 -1 0 0 0 0];

internalField   nonuniform List<scalar> 
38016
(
2.42401e-08
2.42401e-08
2.424e-08
2.424e-08
2.424e-08
2.424e-08
2.424e-08
2.42401e-08
2.42401e-08
2.42401e-08
2.42413e-08
2.42419e-08
2.42422e-08
2.42426e-08
2.4244e-08
2.42475e-08
2.42496e-08
2.42529e-08
2.42544e-08
2.42546e-08
2.4256e-08
2.42716e-08
2.42737e-08
2.42709e-08
2.42728e-08
2.42866e-08
2.42993e-08
2.42973e-08
2.42949e-08
2.4307e-08
2.42776e-08
2.42568e-08
2.42587e-08
2.42611e-08
2.42607e-08
2.43417e-08
2.43194e-08
2.435e-08
2.43788e-08
2.44571e-08
2.45104e-08
2.45304e-08
2.45376e-08
2.46194e-08
2.48587e-08
2.47024e-08
2.48152e-08
2.4794e-08
2.42401e-08
2.424e-08
2.424e-08
2.424e-08
2.424e-08
2.424e-08
2.424e-08
2.424e-08
2.42401e-08
2.42401e-08
2.42411e-08
2.42417e-08
2.42416e-08
2.42425e-08
2.42435e-08
2.42446e-08
2.42477e-08
2.42504e-08
2.42495e-08
2.42519e-08
2.42528e-08
2.42636e-08
2.42702e-08
2.42683e-08
2.4275e-08
2.42727e-08
2.42891e-08
2.42818e-08
2.42996e-08
2.42951e-08
2.42722e-08
2.426e-08
2.42669e-08
2.42721e-08
2.42772e-08
2.43258e-08
2.43112e-08
2.43327e-08
2.43886e-08
2.44534e-08
2.45075e-08
2.4483e-08
2.45369e-08
2.45597e-08
2.49938e-08
2.4665e-08
2.49705e-08
2.47272e-08
2.424e-08
2.424e-08
2.424e-08
2.424e-08
2.424e-08
2.424e-08
2.424e-08
2.424e-08
2.42401e-08
2.42401e-08
2.42411e-08
2.42417e-08
2.42421e-08
2.42422e-08
2.42429e-08
2.42455e-08
2.42485e-08
2.42496e-08
2.42502e-08
2.42527e-08
2.42526e-08
2.42606e-08
2.42654e-08
2.42701e-08
2.42749e-08
2.42875e-08
2.42874e-08
2.4291e-08
2.42967e-08
2.42969e-08
2.42797e-08
2.42611e-08
2.4281e-08
2.42828e-08
2.42852e-08
2.43359e-08
2.43094e-08
2.4353e-08
2.44128e-08
2.44588e-08
2.45722e-08
2.44687e-08
2.44678e-08
2.44877e-08
2.50759e-08
2.4921e-08
2.50752e-08
2.46859e-08
2.424e-08
2.424e-08
2.424e-08
2.424e-08
2.424e-08
2.424e-08
2.424e-08
2.42401e-08
2.42401e-08
2.42401e-08
2.42404e-08
2.42408e-08
2.42417e-08
2.42422e-08
2.4243e-08
2.42434e-08
2.42463e-08
2.42526e-08
2.42547e-08
2.42595e-08
2.4255e-08
2.42649e-08
2.42691e-08
2.42795e-08
2.42884e-08
2.43035e-08
2.42914e-08
2.42927e-08
2.42906e-08
2.4299e-08
2.4277e-08
2.42746e-08
2.42741e-08
2.42851e-08
2.43026e-08
2.43327e-08
2.43048e-08
2.43323e-08
2.44414e-08
2.44891e-08
2.44167e-08
2.43906e-08
2.44345e-08
2.44333e-08
2.48697e-08
2.5248e-08
2.47294e-08
2.46082e-08
2.424e-08
2.424e-08
2.424e-08
2.424e-08
2.424e-08
2.424e-08
2.424e-08
2.42401e-08
2.42401e-08
2.42401e-08
2.42406e-08
2.4241e-08
2.42413e-08
2.42422e-08
2.42431e-08
2.42436e-08
2.42469e-08
2.42508e-08
2.42502e-08
2.42521e-08
2.42581e-08
2.42655e-08
2.42692e-08
2.42722e-08
2.42802e-08
2.42968e-08
2.4289e-08
2.42922e-08
2.42993e-08
2.43053e-08
2.42767e-08
2.42809e-08
2.42727e-08
2.42815e-08
2.43257e-08
2.43383e-08
2.4316e-08
2.43518e-08
2.44155e-08
2.45276e-08
2.44012e-08
2.43901e-08
2.44187e-08
2.44224e-08
2.51333e-08
2.53999e-08
2.47299e-08
2.45922e-08
2.424e-08
2.424e-08
2.424e-08
2.424e-08
2.424e-08
2.424e-08
2.424e-08
2.42401e-08
2.42401e-08
2.42401e-08
2.42405e-08
2.42406e-08
2.42408e-08
2.42423e-08
2.42429e-08
2.42434e-08
2.42435e-08
2.42491e-08
2.42454e-08
2.42579e-08
2.4257e-08
2.42581e-08
2.42635e-08
2.42619e-08
2.42767e-08
2.42855e-08
2.42885e-08
2.4298e-08
2.43024e-08
2.42935e-08
2.42931e-08
2.42786e-08
2.42799e-08
2.42874e-08
2.43241e-08
2.43526e-08
2.4271e-08
2.43058e-08
2.44814e-08
2.45192e-08
2.44021e-08
2.43879e-08
2.44072e-08
2.44601e-08
2.50099e-08
2.5188e-08
2.48181e-08
2.47434e-08
2.424e-08
2.424e-08
2.424e-08
2.424e-08
2.424e-08
2.424e-08
2.424e-08
2.42401e-08
2.42401e-08
2.42401e-08
2.42407e-08
2.42406e-08
2.42411e-08
2.4242e-08
2.42427e-08
2.42447e-08
2.42447e-08
2.42469e-08
2.42436e-08
2.42478e-08
2.42519e-08
2.42587e-08
2.42643e-08
2.42679e-08
2.42665e-08
2.4293e-08
2.42975e-08
2.42992e-08
2.42862e-08
2.43074e-08
2.42957e-08
2.42878e-08
2.42846e-08
2.42872e-08
2.43276e-08
2.4322e-08
2.42866e-08
2.43161e-08
2.44872e-08
2.45297e-08
2.44101e-08
2.44826e-08
2.44067e-08
2.43886e-08
2.5243e-08
2.51266e-08
2.45903e-08
2.49147e-08
2.424e-08
2.424e-08
2.424e-08
2.424e-08
2.424e-08
2.424e-08
2.424e-08
2.42401e-08
2.42401e-08
2.42402e-08
2.42405e-08
2.42407e-08
2.42411e-08
2.42426e-08
2.42435e-08
2.42433e-08
2.42436e-08
2.42458e-08
2.42441e-08
2.42525e-08
2.4254e-08
2.42594e-08
2.42658e-08
2.42653e-08
2.42718e-08
2.42881e-08
2.4296e-08
2.42956e-08
2.42954e-08
2.42853e-08
2.43026e-08
2.42887e-08
2.42967e-08
2.42838e-08
2.43129e-08
2.43198e-08
2.43071e-08
2.43489e-08
2.44512e-08
2.44625e-08
2.43567e-08
2.44515e-08
2.43727e-08
2.44023e-08
2.4632e-08
2.47423e-08
2.45574e-08
2.47833e-08
2.424e-08
2.424e-08
2.424e-08
2.424e-08
2.424e-08
2.424e-08
2.42401e-08
2.42401e-08
2.42401e-08
2.42401e-08
2.42406e-08
2.42405e-08
2.42408e-08
2.42416e-08
2.42425e-08
2.42439e-08
2.42438e-08
2.42477e-08
2.4244e-08
2.42523e-08
2.42563e-08
2.42618e-08
2.42649e-08
2.42658e-08
2.42741e-08
2.429e-08
2.42953e-08
2.42891e-08
2.4292e-08
2.42906e-08
2.43143e-08
2.4277e-08
2.43073e-08
2.42903e-08
2.43231e-08
2.43257e-08
2.42819e-08
2.4318e-08
2.44529e-08
2.44577e-08
2.4357e-08
2.43727e-08
2.43675e-08
2.44397e-08
2.45991e-08
2.47582e-08
2.4556e-08
2.44603e-08
2.424e-08
2.424e-08
2.424e-08
2.424e-08
2.424e-08
2.424e-08
2.42401e-08
2.42401e-08
2.42401e-08
2.42402e-08
2.42404e-08
2.42404e-08
2.42413e-08
2.42417e-08
2.42428e-08
2.42427e-08
2.42439e-08
2.42447e-08
2.42452e-08
2.42549e-08
2.42561e-08
2.42631e-08
2.42688e-08
2.42638e-08
2.42792e-08
2.42944e-08
2.42981e-08
2.43031e-08
2.42992e-08
2.43034e-08
2.43022e-08
2.4303e-08
2.43047e-08
2.43027e-08
2.4332e-08
2.43009e-08
2.42843e-08
2.43035e-08
2.44211e-08
2.44083e-08
2.43597e-08
2.44444e-08
2.43631e-08
2.44347e-08
2.46855e-08
2.46021e-08
2.44784e-08
2.44407e-08
2.424e-08
2.424e-08
2.424e-08
2.424e-08
2.424e-08
2.424e-08
2.42401e-08
2.42401e-08
2.42401e-08
2.42402e-08
2.42404e-08
2.42405e-08
2.42409e-08
2.42413e-08
2.42417e-08
2.42426e-08
2.42438e-08
2.42471e-08
2.42438e-08
2.42566e-08
2.42552e-08
2.42574e-08
2.42599e-08
2.42599e-08
2.42767e-08
2.428e-08
2.42943e-08
2.42961e-08
2.4319e-08
2.43046e-08
2.43021e-08
2.43027e-08
2.43043e-08
2.43039e-08
2.43147e-08
2.43007e-08
2.42964e-08
2.43004e-08
2.44282e-08
2.44556e-08
2.43656e-08
2.43146e-08
2.4369e-08
2.44423e-08
2.44185e-08
2.4476e-08
2.4413e-08
2.43717e-08
2.424e-08
2.424e-08
2.424e-08
2.424e-08
2.424e-08
2.424e-08
2.42401e-08
2.42401e-08
2.42402e-08
2.42402e-08
2.42404e-08
2.42405e-08
2.42409e-08
2.42414e-08
2.42415e-08
2.42428e-08
2.42441e-08
2.42463e-08
2.42436e-08
2.42525e-08
2.42555e-08
2.42618e-08
2.42614e-08
2.42634e-08
2.42813e-08
2.42849e-08
2.43063e-08
2.43032e-08
2.43193e-08
2.43166e-08
2.43039e-08
2.43094e-08
2.42901e-08
2.4287e-08
2.43228e-08
2.43252e-08
2.43111e-08
2.43067e-08
2.44643e-08
2.43461e-08
2.43455e-08
2.43409e-08
2.4393e-08
2.44662e-08
2.44492e-08
2.44267e-08
2.42881e-08
2.43096e-08
2.424e-08
2.424e-08
2.424e-08
2.424e-08
2.424e-08
2.424e-08
2.42401e-08
2.42401e-08
2.42402e-08
2.42403e-08
2.42404e-08
2.42405e-08
2.42411e-08
2.42415e-08
2.42419e-08
2.42423e-08
2.42438e-08
2.4245e-08
2.42448e-08
2.42524e-08
2.4256e-08
2.42607e-08
2.42674e-08
2.42691e-08
2.4286e-08
2.42936e-08
2.43086e-08
2.43021e-08
2.4324e-08
2.43256e-08
2.43063e-08
2.43144e-08
2.43112e-08
2.43172e-08
2.4315e-08
2.43112e-08
2.43083e-08
2.43237e-08
2.42843e-08
2.43265e-08
2.43552e-08
2.43686e-08
2.43762e-08
2.444e-08
2.43956e-08
2.43629e-08
2.43037e-08
2.42774e-08
2.424e-08
2.424e-08
2.424e-08
2.424e-08
2.424e-08
2.42401e-08
2.42401e-08
2.42401e-08
2.42402e-08
2.42403e-08
2.42403e-08
2.42404e-08
2.42409e-08
2.42412e-08
2.42419e-08
2.42423e-08
2.4244e-08
2.42474e-08
2.42468e-08
2.42544e-08
2.42552e-08
2.42586e-08
2.42669e-08
2.42797e-08
2.42783e-08
2.42968e-08
2.43127e-08
2.42966e-08
2.43043e-08
2.43335e-08
2.43239e-08
2.43183e-08
2.43088e-08
2.42992e-08
2.43103e-08
2.43079e-08
2.43467e-08
2.43328e-08
2.43383e-08
2.43361e-08
2.43628e-08
2.4375e-08
2.43611e-08
2.44611e-08
2.43835e-08
2.43731e-08
2.42979e-08
2.42888e-08
2.424e-08
2.424e-08
2.424e-08
2.424e-08
2.424e-08
2.42401e-08
2.42401e-08
2.42401e-08
2.42402e-08
2.42403e-08
2.42404e-08
2.42405e-08
2.42409e-08
2.42414e-08
2.42418e-08
2.4242e-08
2.42438e-08
2.42455e-08
2.42486e-08
2.42495e-08
2.4254e-08
2.42639e-08
2.42696e-08
2.42795e-08
2.42928e-08
2.43017e-08
2.43193e-08
2.43174e-08
2.43113e-08
2.43209e-08
2.43089e-08
2.43288e-08
2.43129e-08
2.43115e-08
2.43126e-08
2.4302e-08
2.43337e-08
2.43058e-08
2.43225e-08
2.43552e-08
2.43935e-08
2.43685e-08
2.44076e-08
2.44158e-08
2.4388e-08
2.44055e-08
2.4294e-08
2.42944e-08
2.424e-08
2.424e-08
2.424e-08
2.424e-08
2.424e-08
2.42401e-08
2.42401e-08
2.42401e-08
2.42402e-08
2.42403e-08
2.42404e-08
2.42407e-08
2.42408e-08
2.42414e-08
2.42419e-08
2.42421e-08
2.42449e-08
2.42465e-08
2.4248e-08
2.42494e-08
2.42561e-08
2.42633e-08
2.42652e-08
2.42739e-08
2.4294e-08
2.42956e-08
2.432e-08
2.43274e-08
2.42964e-08
2.43372e-08
2.43089e-08
2.43316e-08
2.43026e-08
2.43322e-08
2.4339e-08
2.43202e-08
2.43576e-08
2.43062e-08
2.43167e-08
2.43742e-08
2.43956e-08
2.43899e-08
2.44427e-08
2.44755e-08
2.4404e-08
2.44438e-08
2.42981e-08
2.43205e-08
2.424e-08
2.424e-08
2.424e-08
2.424e-08
2.424e-08
2.42401e-08
2.42401e-08
2.42401e-08
2.42402e-08
2.42403e-08
2.42405e-08
2.42406e-08
2.42409e-08
2.42415e-08
2.42421e-08
2.42426e-08
2.42451e-08
2.42463e-08
2.42487e-08
2.42511e-08
2.42557e-08
2.42616e-08
2.42722e-08
2.42822e-08
2.42884e-08
2.43124e-08
2.43086e-08
2.43202e-08
2.43108e-08
2.43489e-08
2.43281e-08
2.43233e-08
2.43159e-08
2.43358e-08
2.43306e-08
2.43483e-08
2.4354e-08
2.43254e-08
2.4362e-08
2.43715e-08
2.44294e-08
2.44209e-08
2.44318e-08
2.44855e-08
2.4435e-08
2.44563e-08
2.43028e-08
2.43475e-08
2.424e-08
2.424e-08
2.424e-08
2.424e-08
2.42401e-08
2.42401e-08
2.42401e-08
2.42402e-08
2.42402e-08
2.42404e-08
2.42405e-08
2.42407e-08
2.42411e-08
2.42416e-08
2.42425e-08
2.42432e-08
2.42456e-08
2.4246e-08
2.42495e-08
2.42519e-08
2.42577e-08
2.4268e-08
2.42746e-08
2.4278e-08
2.43023e-08
2.43147e-08
2.43257e-08
2.43261e-08
2.43314e-08
2.43529e-08
2.43202e-08
2.43526e-08
2.43041e-08
2.43227e-08
2.43438e-08
2.43499e-08
2.43594e-08
2.43478e-08
2.44054e-08
2.44096e-08
2.44406e-08
2.44628e-08
2.44458e-08
2.44719e-08
2.44844e-08
2.44444e-08
2.43168e-08
2.43537e-08
2.424e-08
2.424e-08
2.424e-08
2.424e-08
2.42401e-08
2.42401e-08
2.42401e-08
2.42402e-08
2.42402e-08
2.42404e-08
2.42404e-08
2.42409e-08
2.4241e-08
2.42415e-08
2.42425e-08
2.42428e-08
2.42458e-08
2.42472e-08
2.42512e-08
2.42512e-08
2.42583e-08
2.42688e-08
2.42693e-08
2.42896e-08
2.42985e-08
2.43013e-08
2.4334e-08
2.43425e-08
2.43507e-08
2.4366e-08
2.43351e-08
2.43566e-08
2.43123e-08
2.43404e-08
2.4353e-08
2.43438e-08
2.43448e-08
2.43829e-08
2.44128e-08
2.44047e-08
2.44588e-08
2.44583e-08
2.44757e-08
2.45284e-08
2.45516e-08
2.4495e-08
2.43271e-08
2.43446e-08
2.424e-08
2.424e-08
2.424e-08
2.424e-08
2.42401e-08
2.42401e-08
2.42401e-08
2.42402e-08
2.42402e-08
2.42404e-08
2.42406e-08
2.42409e-08
2.42414e-08
2.42419e-08
2.42428e-08
2.42432e-08
2.42463e-08
2.42492e-08
2.4251e-08
2.42509e-08
2.42569e-08
2.42655e-08
2.42744e-08
2.42844e-08
2.42916e-08
2.43078e-08
2.43213e-08
2.43435e-08
2.43395e-08
2.43624e-08
2.43729e-08
2.43667e-08
2.43138e-08
2.4325e-08
2.43444e-08
2.43422e-08
2.43762e-08
2.43747e-08
2.44015e-08
2.44557e-08
2.44701e-08
2.44993e-08
2.44895e-08
2.45027e-08
2.45463e-08
2.44863e-08
2.43269e-08
2.43664e-08
2.424e-08
2.424e-08
2.424e-08
2.424e-08
2.42401e-08
2.42401e-08
2.42401e-08
2.42402e-08
2.42402e-08
2.42404e-08
2.42406e-08
2.42409e-08
2.42414e-08
2.42418e-08
2.42433e-08
2.42439e-08
2.42456e-08
2.42485e-08
2.42538e-08
2.42544e-08
2.42613e-08
2.42716e-08
2.42683e-08
2.42996e-08
2.42979e-08
2.43252e-08
2.43453e-08
2.43598e-08
2.43485e-08
2.4374e-08
2.43749e-08
2.43699e-08
2.43262e-08
2.4338e-08
2.43752e-08
2.43463e-08
2.44117e-08
2.43618e-08
2.44459e-08
2.44592e-08
2.44891e-08
2.44951e-08
2.45459e-08
2.45565e-08
2.45765e-08
2.44944e-08
2.43697e-08
2.44093e-08
2.424e-08
2.424e-08
2.424e-08
2.42401e-08
2.42401e-08
2.42401e-08
2.42401e-08
2.42402e-08
2.42403e-08
2.42405e-08
2.42406e-08
2.42409e-08
2.42416e-08
2.42416e-08
2.42433e-08
2.42439e-08
2.42473e-08
2.42495e-08
2.42526e-08
2.42588e-08
2.4259e-08
2.42706e-08
2.42723e-08
2.43007e-08
2.43142e-08
2.43126e-08
2.43492e-08
2.43542e-08
2.43736e-08
2.43588e-08
2.43889e-08
2.43805e-08
2.43329e-08
2.43701e-08
2.43747e-08
2.43851e-08
2.44013e-08
2.43812e-08
2.44321e-08
2.44426e-08
2.44905e-08
2.45158e-08
2.45535e-08
2.45774e-08
2.45618e-08
2.44845e-08
2.43896e-08
2.44515e-08
2.424e-08
2.424e-08
2.424e-08
2.424e-08
2.42401e-08
2.42401e-08
2.42401e-08
2.42402e-08
2.42403e-08
2.42405e-08
2.42406e-08
2.42409e-08
2.42416e-08
2.42419e-08
2.42435e-08
2.42453e-08
2.42471e-08
2.42506e-08
2.4255e-08
2.42602e-08
2.42626e-08
2.42782e-08
2.42817e-08
2.43067e-08
2.43144e-08
2.43318e-08
2.43578e-08
2.43768e-08
2.43651e-08
2.43785e-08
2.43734e-08
2.43917e-08
2.43645e-08
2.44014e-08
2.43881e-08
2.44151e-08
2.44351e-08
2.44108e-08
2.44722e-08
2.44851e-08
2.45054e-08
2.45214e-08
2.45158e-08
2.4593e-08
2.46136e-08
2.44859e-08
2.44018e-08
2.44484e-08
2.424e-08
2.424e-08
2.42401e-08
2.42401e-08
2.42401e-08
2.42401e-08
2.42401e-08
2.42402e-08
2.42403e-08
2.42405e-08
2.42407e-08
2.4241e-08
2.42417e-08
2.42423e-08
2.42436e-08
2.42453e-08
2.42493e-08
2.42533e-08
2.42543e-08
2.42571e-08
2.42704e-08
2.42788e-08
2.42814e-08
2.43024e-08
2.43274e-08
2.43511e-08
2.43449e-08
2.43688e-08
2.43447e-08
2.43711e-08
2.44016e-08
2.43707e-08
2.44055e-08
2.43956e-08
2.4426e-08
2.44091e-08
2.44287e-08
2.44563e-08
2.44712e-08
2.44721e-08
2.44739e-08
2.45296e-08
2.45633e-08
2.46268e-08
2.45797e-08
2.44888e-08
2.44232e-08
2.44971e-08
2.424e-08
2.424e-08
2.42401e-08
2.42401e-08
2.42401e-08
2.42401e-08
2.42401e-08
2.42402e-08
2.42403e-08
2.42405e-08
2.42407e-08
2.42412e-08
2.42418e-08
2.42429e-08
2.42441e-08
2.42468e-08
2.42492e-08
2.42533e-08
2.42551e-08
2.4259e-08
2.4271e-08
2.42828e-08
2.42925e-08
2.43159e-08
2.43241e-08
2.43431e-08
2.43737e-08
2.43751e-08
2.43511e-08
2.43906e-08
2.43843e-08
2.44022e-08
2.44067e-08
2.44242e-08
2.44252e-08
2.44367e-08
2.44417e-08
2.44363e-08
2.44819e-08
2.45066e-08
2.45241e-08
2.45547e-08
2.4593e-08
2.46325e-08
2.46412e-08
2.44851e-08
2.44198e-08
2.4515e-08
2.424e-08
2.424e-08
2.42401e-08
2.42401e-08
2.42401e-08
2.42401e-08
2.42402e-08
2.42402e-08
2.42403e-08
2.42405e-08
2.42409e-08
2.42412e-08
2.4242e-08
2.42427e-08
2.42451e-08
2.42466e-08
2.42499e-08
2.42547e-08
2.42548e-08
2.4264e-08
2.42737e-08
2.42834e-08
2.42931e-08
2.43162e-08
2.43335e-08
2.43647e-08
2.4357e-08
2.43871e-08
2.43578e-08
2.43603e-08
2.44155e-08
2.44042e-08
2.44217e-08
2.44251e-08
2.44263e-08
2.44441e-08
2.44596e-08
2.44631e-08
2.44841e-08
2.44808e-08
2.45491e-08
2.45675e-08
2.46045e-08
2.46474e-08
2.46104e-08
2.45664e-08
2.44206e-08
2.44816e-08
2.424e-08
2.42401e-08
2.42401e-08
2.42401e-08
2.42401e-08
2.42401e-08
2.42401e-08
2.42402e-08
2.42403e-08
2.42405e-08
2.42408e-08
2.42415e-08
2.42419e-08
2.4243e-08
2.42451e-08
2.42476e-08
2.42494e-08
2.42543e-08
2.42602e-08
2.42616e-08
2.42757e-08
2.4287e-08
2.42864e-08
2.43067e-08
2.43286e-08
2.43576e-08
2.43752e-08
2.43787e-08
2.43867e-08
2.43651e-08
2.44138e-08
2.44255e-08
2.44128e-08
2.43953e-08
2.44129e-08
2.4414e-08
2.44372e-08
2.44502e-08
2.44629e-08
2.45114e-08
2.45464e-08
2.46021e-08
2.46401e-08
2.46577e-08
2.46812e-08
2.45781e-08
2.44589e-08
2.45059e-08
2.424e-08
2.42401e-08
2.42401e-08
2.42401e-08
2.42401e-08
2.42401e-08
2.42402e-08
2.42403e-08
2.42404e-08
2.42406e-08
2.42407e-08
2.42414e-08
2.42417e-08
2.42431e-08
2.42455e-08
2.42476e-08
2.42503e-08
2.42563e-08
2.42593e-08
2.42674e-08
2.42749e-08
2.42891e-08
2.42971e-08
2.4322e-08
2.43359e-08
2.43473e-08
2.43493e-08
2.44001e-08
2.43685e-08
2.43802e-08
2.44072e-08
2.44224e-08
2.44243e-08
2.44204e-08
2.44157e-08
2.44435e-08
2.44776e-08
2.44712e-08
2.45196e-08
2.44668e-08
2.45362e-08
2.46029e-08
2.45933e-08
2.46694e-08
2.46719e-08
2.46234e-08
2.456e-08
2.45991e-08
2.424e-08
2.42401e-08
2.42401e-08
2.42401e-08
2.42401e-08
2.42401e-08
2.42401e-08
2.42402e-08
2.42404e-08
2.42406e-08
2.42409e-08
2.42416e-08
2.42422e-08
2.42437e-08
2.42458e-08
2.42484e-08
2.42517e-08
2.42563e-08
2.42589e-08
2.42665e-08
2.42779e-08
2.42935e-08
2.42856e-08
2.43181e-08
2.43167e-08
2.43708e-08
2.43577e-08
2.43702e-08
2.44082e-08
2.44144e-08
2.44276e-08
2.44248e-08
2.43886e-08
2.44159e-08
2.43879e-08
2.44347e-08
2.4465e-08
2.44651e-08
2.45044e-08
2.4481e-08
2.45752e-08
2.45932e-08
2.4646e-08
2.46797e-08
2.47013e-08
2.46447e-08
2.4668e-08
2.46608e-08
2.424e-08
2.42401e-08
2.42401e-08
2.42401e-08
2.42401e-08
2.42401e-08
2.42401e-08
2.42403e-08
2.42404e-08
2.42407e-08
2.42408e-08
2.42414e-08
2.42424e-08
2.42437e-08
2.42451e-08
2.42485e-08
2.42528e-08
2.42579e-08
2.42646e-08
2.42741e-08
2.42755e-08
2.42933e-08
2.42864e-08
2.43264e-08
2.43203e-08
2.43678e-08
2.43824e-08
2.43792e-08
2.44062e-08
2.44247e-08
2.44143e-08
2.43892e-08
2.43959e-08
2.44259e-08
2.44186e-08
2.44572e-08
2.44682e-08
2.44948e-08
2.44749e-08
2.45223e-08
2.45695e-08
2.46469e-08
2.46447e-08
2.4717e-08
2.46343e-08
2.46388e-08
2.46946e-08
2.46019e-08
2.424e-08
2.42401e-08
2.42401e-08
2.42401e-08
2.42401e-08
2.42401e-08
2.42402e-08
2.42403e-08
2.42404e-08
2.42406e-08
2.42408e-08
2.42416e-08
2.42421e-08
2.42442e-08
2.4246e-08
2.4249e-08
2.42529e-08
2.42585e-08
2.42643e-08
2.42741e-08
2.428e-08
2.42916e-08
2.42916e-08
2.43254e-08
2.43287e-08
2.43613e-08
2.43904e-08
2.44051e-08
2.44099e-08
2.44098e-08
2.44177e-08
2.43986e-08
2.44229e-08
2.43885e-08
2.43912e-08
2.44215e-08
2.44621e-08
2.44761e-08
2.45063e-08
2.45406e-08
2.45722e-08
2.46445e-08
2.46954e-08
2.47262e-08
2.46473e-08
2.469e-08
2.45745e-08
2.46919e-08
2.42401e-08
2.42401e-08
2.42401e-08
2.42401e-08
2.42401e-08
2.42402e-08
2.42402e-08
2.42403e-08
2.42405e-08
2.42407e-08
2.42407e-08
2.42416e-08
2.42423e-08
2.42437e-08
2.42465e-08
2.42496e-08
2.42542e-08
2.42601e-08
2.4267e-08
2.42734e-08
2.42721e-08
2.42975e-08
2.43054e-08
2.43333e-08
2.43494e-08
2.43713e-08
2.43863e-08
2.44116e-08
2.43777e-08
2.4411e-08
2.43901e-08
2.44259e-08
2.44296e-08
2.44141e-08
2.44272e-08
2.4454e-08
2.44567e-08
2.44723e-08
2.45155e-08
2.45399e-08
2.45484e-08
2.46298e-08
2.46266e-08
2.47626e-08
2.4696e-08
2.47222e-08
2.46237e-08
2.47433e-08
2.424e-08
2.42401e-08
2.42401e-08
2.42401e-08
2.42401e-08
2.42402e-08
2.42402e-08
2.42403e-08
2.42404e-08
2.42407e-08
2.42408e-08
2.42418e-08
2.42427e-08
2.42444e-08
2.42466e-08
2.4249e-08
2.42545e-08
2.42617e-08
2.42636e-08
2.42779e-08
2.42736e-08
2.42939e-08
2.42979e-08
2.43267e-08
2.43554e-08
2.43577e-08
2.4387e-08
2.43975e-08
2.44097e-08
2.43812e-08
2.44179e-08
2.44078e-08
2.44251e-08
2.4413e-08
2.44045e-08
2.44404e-08
2.44178e-08
2.44309e-08
2.44698e-08
2.45516e-08
2.45826e-08
2.46821e-08
2.46512e-08
2.47029e-08
2.4732e-08
2.48512e-08
2.45557e-08
2.50543e-08
2.424e-08
2.42401e-08
2.42401e-08
2.42401e-08
2.42401e-08
2.42401e-08
2.42402e-08
2.42403e-08
2.42405e-08
2.42408e-08
2.42407e-08
2.42417e-08
2.42421e-08
2.42447e-08
2.42472e-08
2.42503e-08
2.4256e-08
2.4262e-08
2.42685e-08
2.42763e-08
2.42755e-08
2.42949e-08
2.43152e-08
2.43273e-08
2.4346e-08
2.43534e-08
2.43541e-08
2.43958e-08
2.44103e-08
2.44043e-08
2.44228e-08
2.44012e-08
2.44241e-08
2.43966e-08
2.43817e-08
2.44366e-08
2.44276e-08
2.44342e-08
2.44979e-08
2.45078e-08
2.45646e-08
2.46604e-08
2.47121e-08
2.47814e-08
2.47307e-08
2.4866e-08
2.4736e-08
2.52447e-08
2.424e-08
2.42401e-08
2.42401e-08
2.42401e-08
2.42401e-08
2.42402e-08
2.42402e-08
2.42404e-08
2.42405e-08
2.42407e-08
2.42407e-08
2.42419e-08
2.42422e-08
2.42445e-08
2.42468e-08
2.42495e-08
2.42559e-08
2.42608e-08
2.42705e-08
2.42777e-08
2.42845e-08
2.42883e-08
2.431e-08
2.43239e-08
2.43455e-08
2.43366e-08
2.43596e-08
2.43654e-08
2.4403e-08
2.44028e-08
2.44011e-08
2.43747e-08
2.44082e-08
2.4372e-08
2.4412e-08
2.44279e-08
2.44179e-08
2.44528e-08
2.44946e-08
2.45578e-08
2.45506e-08
2.46805e-08
2.46982e-08
2.47979e-08
2.47618e-08
2.49051e-08
2.45344e-08
2.55329e-08
2.42401e-08
2.42401e-08
2.42401e-08
2.42401e-08
2.42401e-08
2.42402e-08
2.42402e-08
2.42404e-08
2.42405e-08
2.42407e-08
2.42407e-08
2.42423e-08
2.42424e-08
2.42442e-08
2.42464e-08
2.42508e-08
2.42562e-08
2.42613e-08
2.4267e-08
2.42749e-08
2.42793e-08
2.42966e-08
2.4311e-08
2.43219e-08
2.43258e-08
2.43336e-08
2.4362e-08
2.43834e-08
2.44031e-08
2.43874e-08
2.43712e-08
2.43836e-08
2.4378e-08
2.44021e-08
2.43768e-08
2.44209e-08
2.44171e-08
2.44385e-08
2.44939e-08
2.45784e-08
2.44999e-08
2.47071e-08
2.47497e-08
2.47412e-08
2.4712e-08
2.49207e-08
2.46825e-08
2.55615e-08
2.42401e-08
2.42401e-08
2.42401e-08
2.42401e-08
2.42401e-08
2.42401e-08
2.42402e-08
2.42404e-08
2.42406e-08
2.42409e-08
2.4241e-08
2.42423e-08
2.42431e-08
2.42452e-08
2.42478e-08
2.42488e-08
2.42547e-08
2.42615e-08
2.42715e-08
2.42751e-08
2.42898e-08
2.42998e-08
2.43006e-08
2.43198e-08
2.43289e-08
2.43367e-08
2.4353e-08
2.43552e-08
2.43806e-08
2.43807e-08
2.43745e-08
2.43704e-08
2.43953e-08
2.43855e-08
2.44053e-08
2.441e-08
2.44226e-08
2.43982e-08
2.44433e-08
2.45716e-08
2.44988e-08
2.46703e-08
2.47428e-08
2.47838e-08
2.47932e-08
2.49737e-08
2.47274e-08
2.60004e-08
2.42401e-08
2.42401e-08
2.42401e-08
2.42401e-08
2.42401e-08
2.42401e-08
2.42403e-08
2.42403e-08
2.42405e-08
2.42409e-08
2.42413e-08
2.4242e-08
2.42427e-08
2.42443e-08
2.42464e-08
2.42491e-08
2.42571e-08
2.42621e-08
2.4272e-08
2.42739e-08
2.42861e-08
2.42971e-08
2.43092e-08
2.43151e-08
2.4342e-08
2.43485e-08
2.43599e-08
2.43796e-08
2.43637e-08
2.43736e-08
2.43595e-08
2.43804e-08
2.43818e-08
2.43792e-08
2.43908e-08
2.43734e-08
2.44077e-08
2.43986e-08
2.44531e-08
2.45794e-08
2.45419e-08
2.47162e-08
2.4756e-08
2.48173e-08
2.47912e-08
2.5057e-08
2.45152e-08
2.49333e-08
2.424e-08
2.42401e-08
2.42401e-08
2.42401e-08
2.42402e-08
2.42401e-08
2.42403e-08
2.42404e-08
2.42406e-08
2.42408e-08
2.42412e-08
2.42423e-08
2.42436e-08
2.42446e-08
2.42469e-08
2.42498e-08
2.42548e-08
2.42579e-08
2.42663e-08
2.42705e-08
2.42848e-08
2.42974e-08
2.4312e-08
2.43021e-08
2.43307e-08
2.43375e-08
2.43323e-08
2.43448e-08
2.43719e-08
2.43454e-08
2.4357e-08
2.43661e-08
2.43705e-08
2.43489e-08
2.43788e-08
2.43782e-08
2.43707e-08
2.43999e-08
2.44487e-08
2.45348e-08
2.44961e-08
2.47111e-08
2.47821e-08
2.48821e-08
2.46901e-08
2.4754e-08
2.44844e-08
2.50211e-08
2.42401e-08
2.42401e-08
2.42401e-08
2.42401e-08
2.42401e-08
2.42402e-08
2.42403e-08
2.42404e-08
2.42405e-08
2.42409e-08
2.42412e-08
2.42423e-08
2.42436e-08
2.42454e-08
2.42466e-08
2.42517e-08
2.42561e-08
2.42589e-08
2.42692e-08
2.42784e-08
2.42816e-08
2.42946e-08
2.43033e-08
2.43147e-08
2.43251e-08
2.43352e-08
2.435e-08
2.43501e-08
2.43575e-08
2.4367e-08
2.43596e-08
2.43393e-08
2.43615e-08
2.43382e-08
2.43696e-08
2.43598e-08
2.43603e-08
2.44307e-08
2.44713e-08
2.45806e-08
2.4557e-08
2.47727e-08
2.47074e-08
2.484e-08
2.47171e-08
2.46244e-08
2.44375e-08
2.5369e-08
2.42401e-08
2.42401e-08
2.42401e-08
2.42401e-08
2.42402e-08
2.42401e-08
2.42403e-08
2.42404e-08
2.42405e-08
2.4241e-08
2.42416e-08
2.42422e-08
2.42437e-08
2.42445e-08
2.42462e-08
2.42523e-08
2.42571e-08
2.42586e-08
2.42689e-08
2.42775e-08
2.42771e-08
2.42943e-08
2.43006e-08
2.43076e-08
2.43135e-08
2.43134e-08
2.4317e-08
2.43347e-08
2.43272e-08
2.43293e-08
2.43281e-08
2.43291e-08
2.43265e-08
2.43276e-08
2.43339e-08
2.43502e-08
2.43758e-08
2.44149e-08
2.44366e-08
2.45629e-08
2.46478e-08
2.47123e-08
2.47334e-08
2.49142e-08
2.47772e-08
2.46762e-08
2.44393e-08
2.49168e-08
2.42401e-08
2.42401e-08
2.42401e-08
2.42401e-08
2.42402e-08
2.42402e-08
2.42403e-08
2.42405e-08
2.42406e-08
2.4241e-08
2.42415e-08
2.42422e-08
2.42436e-08
2.42451e-08
2.42468e-08
2.42516e-08
2.42538e-08
2.42601e-08
2.42626e-08
2.42777e-08
2.42777e-08
2.42825e-08
2.42911e-08
2.42946e-08
2.43176e-08
2.43281e-08
2.43172e-08
2.43225e-08
2.43272e-08
2.43312e-08
2.43429e-08
2.43265e-08
2.43246e-08
2.4316e-08
2.43315e-08
2.43391e-08
2.43569e-08
2.43853e-08
2.44799e-08
2.45603e-08
2.46445e-08
2.47776e-08
2.48102e-08
2.48715e-08
2.48037e-08
2.46181e-08
2.44064e-08
2.50171e-08
2.42401e-08
2.42401e-08
2.42401e-08
2.42401e-08
2.42402e-08
2.42402e-08
2.42403e-08
2.42404e-08
2.42406e-08
2.42409e-08
2.42416e-08
2.42422e-08
2.42437e-08
2.42444e-08
2.42479e-08
2.42515e-08
2.42544e-08
2.42567e-08
2.42628e-08
2.42703e-08
2.42751e-08
2.42898e-08
2.42883e-08
2.42896e-08
2.43102e-08
2.43016e-08
2.42968e-08
2.43267e-08
2.43114e-08
2.4316e-08
2.43097e-08
2.4317e-08
2.43081e-08
2.43069e-08
2.4315e-08
2.43315e-08
2.43458e-08
2.4374e-08
2.44679e-08
2.45493e-08
2.46515e-08
2.479e-08
2.48131e-08
2.48639e-08
2.48125e-08
2.46049e-08
2.44612e-08
2.54746e-08
2.42401e-08
2.42401e-08
2.42401e-08
2.42401e-08
2.42401e-08
2.42402e-08
2.42403e-08
2.42405e-08
2.42407e-08
2.4241e-08
2.42413e-08
2.42423e-08
2.42436e-08
2.42444e-08
2.42481e-08
2.42511e-08
2.4253e-08
2.426e-08
2.42673e-08
2.42745e-08
2.42787e-08
2.42795e-08
2.42849e-08
2.42876e-08
2.42928e-08
2.43018e-08
2.42905e-08
2.43124e-08
2.42889e-08
2.43078e-08
2.43075e-08
2.42906e-08
2.42935e-08
2.42956e-08
2.42868e-08
2.43234e-08
2.43336e-08
2.43651e-08
2.4464e-08
2.44997e-08
2.45826e-08
2.47204e-08
2.48006e-08
2.48045e-08
2.48283e-08
2.45853e-08
2.43627e-08
2.50623e-08
2.42401e-08
2.42401e-08
2.42401e-08
2.42401e-08
2.42402e-08
2.42402e-08
2.42403e-08
2.42405e-08
2.42407e-08
2.42408e-08
2.42414e-08
2.42422e-08
2.42436e-08
2.42448e-08
2.42474e-08
2.42506e-08
2.4253e-08
2.42587e-08
2.42655e-08
2.42746e-08
2.42744e-08
2.42869e-08
2.4281e-08
2.42842e-08
2.42938e-08
2.42904e-08
2.42925e-08
2.42867e-08
2.42816e-08
2.42986e-08
2.42945e-08
2.42892e-08
2.42783e-08
2.42733e-08
2.42854e-08
2.4296e-08
2.43029e-08
2.43508e-08
2.44162e-08
2.451e-08
2.45927e-08
2.47824e-08
2.48248e-08
2.47785e-08
2.48152e-08
2.46315e-08
2.43808e-08
2.49615e-08
2.42401e-08
2.42401e-08
2.42401e-08
2.42401e-08
2.42401e-08
2.42402e-08
2.42403e-08
2.42404e-08
2.42407e-08
2.42408e-08
2.42415e-08
2.42422e-08
2.42429e-08
2.4244e-08
2.42472e-08
2.42498e-08
2.42528e-08
2.4258e-08
2.42609e-08
2.42718e-08
2.42717e-08
2.42757e-08
2.42773e-08
2.42896e-08
2.42856e-08
2.42718e-08
2.42755e-08
2.42803e-08
2.42763e-08
2.42772e-08
2.42726e-08
2.42781e-08
2.42721e-08
2.42682e-08
2.42727e-08
2.42907e-08
2.42954e-08
2.43417e-08
2.44141e-08
2.44898e-08
2.46162e-08
2.4753e-08
2.48229e-08
2.47779e-08
2.48423e-08
2.46355e-08
2.43862e-08
2.49893e-08
2.42401e-08
2.42401e-08
2.42401e-08
2.42402e-08
2.42402e-08
2.42402e-08
2.42403e-08
2.42404e-08
2.42407e-08
2.4241e-08
2.42416e-08
2.4242e-08
2.42432e-08
2.42449e-08
2.42468e-08
2.42488e-08
2.42528e-08
2.4256e-08
2.42615e-08
2.427e-08
2.42693e-08
2.42758e-08
2.42746e-08
2.42824e-08
2.427e-08
2.42668e-08
2.42705e-08
2.4274e-08
2.4271e-08
2.42766e-08
2.42682e-08
2.42669e-08
2.42681e-08
2.42632e-08
2.427e-08
2.42789e-08
2.4288e-08
2.43287e-08
2.43924e-08
2.44901e-08
2.4572e-08
2.46927e-08
2.48358e-08
2.47683e-08
2.48433e-08
2.46184e-08
2.44912e-08
2.52813e-08
2.42401e-08
2.42401e-08
2.42401e-08
2.42402e-08
2.42402e-08
2.42402e-08
2.42403e-08
2.42404e-08
2.42407e-08
2.4241e-08
2.42412e-08
2.42418e-08
2.42432e-08
2.42447e-08
2.42466e-08
2.42492e-08
2.42521e-08
2.42574e-08
2.42591e-08
2.42636e-08
2.42628e-08
2.42706e-08
2.42728e-08
2.42696e-08
2.42657e-08
2.42599e-08
2.42626e-08
2.42624e-08
2.42708e-08
2.42675e-08
2.42677e-08
2.42663e-08
2.42636e-08
2.42643e-08
2.42698e-08
2.42838e-08
2.42839e-08
2.43181e-08
2.43781e-08
2.4488e-08
2.46152e-08
2.47063e-08
2.48006e-08
2.47737e-08
2.48806e-08
2.46574e-08
2.46112e-08
2.56253e-08
2.42401e-08
2.42401e-08
2.42401e-08
2.42402e-08
2.42402e-08
2.42402e-08
2.42403e-08
2.42404e-08
2.42406e-08
2.42409e-08
2.42413e-08
2.42422e-08
2.42426e-08
2.42446e-08
2.42463e-08
2.42482e-08
2.42523e-08
2.42538e-08
2.4259e-08
2.42659e-08
2.42615e-08
2.42687e-08
2.42694e-08
2.42659e-08
2.42603e-08
2.42555e-08
2.42576e-08
2.42648e-08
2.42737e-08
2.4278e-08
2.42739e-08
2.42759e-08
2.4275e-08
2.42717e-08
2.42762e-08
2.42837e-08
2.4279e-08
2.43035e-08
2.43654e-08
2.44449e-08
2.45443e-08
2.4725e-08
2.48076e-08
2.47884e-08
2.48797e-08
2.46809e-08
2.47495e-08
2.58608e-08
2.42401e-08
2.42401e-08
2.42401e-08
2.42402e-08
2.42402e-08
2.42403e-08
2.42404e-08
2.42405e-08
2.42406e-08
2.42408e-08
2.42413e-08
2.42421e-08
2.42426e-08
2.42436e-08
2.42458e-08
2.42486e-08
2.42512e-08
2.42568e-08
2.42597e-08
2.42633e-08
2.42657e-08
2.42656e-08
2.42585e-08
2.42605e-08
2.42553e-08
2.42525e-08
2.42558e-08
2.42652e-08
2.42753e-08
2.42884e-08
2.4283e-08
2.42813e-08
2.42946e-08
2.42712e-08
2.43043e-08
2.43026e-08
2.42917e-08
2.43035e-08
2.43512e-08
2.44573e-08
2.45446e-08
2.46991e-08
2.48107e-08
2.48046e-08
2.49354e-08
2.46769e-08
2.47898e-08
2.55211e-08
2.42401e-08
2.42401e-08
2.42402e-08
2.42402e-08
2.42402e-08
2.42403e-08
2.42403e-08
2.42405e-08
2.42408e-08
2.42409e-08
2.42412e-08
2.42422e-08
2.42431e-08
2.42438e-08
2.42455e-08
2.42484e-08
2.42508e-08
2.42527e-08
2.42576e-08
2.42573e-08
2.42618e-08
2.42636e-08
2.42584e-08
2.42565e-08
2.42494e-08
2.42524e-08
2.4255e-08
2.4272e-08
2.4294e-08
2.42979e-08
2.4306e-08
2.43122e-08
2.43157e-08
2.42944e-08
2.43158e-08
2.43326e-08
2.43062e-08
2.43182e-08
2.43188e-08
2.44008e-08
2.45023e-08
2.46172e-08
2.47229e-08
2.47668e-08
2.48961e-08
2.46448e-08
2.48516e-08
2.57277e-08
2.42401e-08
2.42402e-08
2.42401e-08
2.42402e-08
2.42402e-08
2.42403e-08
2.42404e-08
2.42405e-08
2.42406e-08
2.42409e-08
2.42413e-08
2.4242e-08
2.42429e-08
2.42434e-08
2.42442e-08
2.42462e-08
2.42502e-08
2.42532e-08
2.42532e-08
2.4257e-08
2.42556e-08
2.4261e-08
2.42531e-08
2.42501e-08
2.42476e-08
2.4252e-08
2.42614e-08
2.42771e-08
2.43287e-08
2.43337e-08
2.43319e-08
2.43289e-08
2.43184e-08
2.43135e-08
2.43286e-08
2.43453e-08
2.43189e-08