/*--------------------------------*- C++ -*----------------------------------*\
  =========                 |
  \\      /  F ield         | OpenFOAM: The Open Source CFD Toolbox
   \\    /   O peration     | Website:  https://openfoam.org
    \\  /    A nd           | Version:  10
     \\/     M anipulation  |
\*---------------------------------------------------------------------------*/
FoamFile
{
    format      ascii;
    class       volScalarField;
    location    "5";
    object      nuTilda;
}
// * * * * * * * * * * * * * * * * * * * * * * * * * * * * * * * * * * * * * //

dimensions      [0 2 -1 0 0 0 0];

internalField   nonuniform List<scalar> 
38016
(
8.70001e-06
8.70001e-06
8.70001e-06
8.7e-06
8.7e-06
8.7e-06
8.70001e-06
8.70001e-06
8.70001e-06
8.70001e-06
8.70013e-06
8.70019e-06
8.70022e-06
8.7003e-06
8.70039e-06
8.70066e-06
8.70085e-06
8.70135e-06
8.70148e-06
8.70165e-06
8.70146e-06
8.70372e-06
8.70396e-06
8.70317e-06
8.70364e-06
8.70472e-06
8.70574e-06
8.70582e-06
8.70609e-06
8.70811e-06
8.70462e-06
8.70215e-06
8.70242e-06
8.7024e-06
8.70249e-06
8.71343e-06
8.70794e-06
8.71853e-06
8.72001e-06
8.72239e-06
8.73613e-06
8.73713e-06
8.73073e-06
8.73062e-06
8.7773e-06
8.74677e-06
8.76827e-06
8.74592e-06
8.70001e-06
8.7e-06
8.7e-06
8.70001e-06
8.7e-06
8.7e-06
8.7e-06
8.70001e-06
8.70001e-06
8.70001e-06
8.7001e-06
8.70016e-06
8.7002e-06
8.70024e-06
8.70033e-06
8.70061e-06
8.70075e-06
8.70136e-06
8.70158e-06
8.70181e-06
8.70134e-06
8.70203e-06
8.70284e-06
8.7032e-06
8.70433e-06
8.70473e-06
8.70513e-06
8.70558e-06
8.7068e-06
8.70547e-06
8.70449e-06
8.70234e-06
8.70364e-06
8.70392e-06
8.7051e-06
8.70902e-06
8.70885e-06
8.71044e-06
8.71427e-06
8.72157e-06
8.72456e-06
8.72058e-06
8.72518e-06
8.73352e-06
8.78453e-06
8.76974e-06
8.77504e-06
8.7444e-06
8.7e-06
8.7e-06
8.70001e-06
8.7e-06
8.7e-06
8.7e-06
8.7e-06
8.70001e-06
8.70001e-06
8.70001e-06
8.7001e-06
8.70017e-06
8.70024e-06
8.7002e-06
8.70037e-06
8.70058e-06
8.70069e-06
8.70103e-06
8.70111e-06
8.70131e-06
8.70168e-06
8.70261e-06
8.70349e-06
8.70337e-06
8.70477e-06
8.70542e-06
8.70707e-06
8.70659e-06
8.70726e-06
8.70754e-06
8.70443e-06
8.70266e-06
8.70535e-06
8.7057e-06
8.70541e-06
8.71356e-06
8.70722e-06
8.71535e-06
8.719e-06
8.72347e-06
8.72319e-06
8.72533e-06
8.72042e-06
8.72006e-06
8.79246e-06
8.77488e-06
8.78627e-06
8.74914e-06
8.70001e-06
8.7e-06
8.7e-06
8.7e-06
8.7e-06
8.7e-06
8.7e-06
8.70001e-06
8.70001e-06
8.70001e-06
8.70009e-06
8.70014e-06
8.70025e-06
8.70023e-06
8.70047e-06
8.70054e-06
8.70064e-06
8.70144e-06
8.70154e-06
8.7016e-06
8.70143e-06
8.70248e-06
8.70299e-06
8.70428e-06
8.70507e-06
8.70708e-06
8.70683e-06
8.70685e-06
8.70452e-06
8.70685e-06
8.70427e-06
8.70489e-06
8.70334e-06
8.70547e-06
8.7081e-06
8.71079e-06
8.70621e-06
8.71357e-06
8.7248e-06
8.72685e-06
8.71572e-06
8.72025e-06
8.71823e-06
8.72108e-06
8.79609e-06
8.81344e-06
8.78111e-06
8.75683e-06
8.70001e-06
8.7e-06
8.7e-06
8.7e-06
8.7e-06
8.7e-06
8.7e-06
8.70001e-06
8.70001e-06
8.70001e-06
8.70011e-06
8.70018e-06
8.70011e-06
8.70029e-06
8.70048e-06
8.7007e-06
8.70063e-06
8.70093e-06
8.70079e-06
8.70144e-06
8.70164e-06
8.70237e-06
8.70296e-06
8.70312e-06
8.70387e-06
8.70583e-06
8.70747e-06
8.70783e-06
8.70721e-06
8.70871e-06
8.7041e-06
8.70608e-06
8.70394e-06
8.70572e-06
8.71221e-06
8.71155e-06
8.70641e-06
8.71438e-06
8.72543e-06
8.73446e-06
8.71617e-06
8.72306e-06
8.72101e-06
8.72456e-06
8.81815e-06
8.82702e-06
8.7847e-06
8.74077e-06
8.7e-06
8.7e-06
8.7e-06
8.7e-06
8.7e-06
8.7e-06
8.70001e-06
8.70001e-06
8.70001e-06
8.70001e-06
8.70006e-06
8.70005e-06
8.70014e-06
8.70043e-06
8.70056e-06
8.70035e-06
8.70047e-06
8.70096e-06
8.70074e-06
8.70145e-06
8.70156e-06
8.70202e-06
8.70232e-06
8.70326e-06
8.70347e-06
8.7063e-06
8.70531e-06
8.70714e-06
8.7073e-06
8.70764e-06
8.70537e-06
8.70676e-06
8.70426e-06
8.70845e-06
8.71099e-06
8.71276e-06
8.70501e-06
8.71213e-06
8.72977e-06
8.73352e-06
8.71917e-06
8.71687e-06
8.71861e-06
8.72072e-06
8.77178e-06
8.78259e-06
8.77476e-06
8.77424e-06
8.7e-06
8.7e-06
8.7e-06
8.7e-06
8.7e-06
8.7e-06
8.70001e-06
8.70001e-06
8.70001e-06
8.70001e-06
8.70012e-06
8.70009e-06
8.70016e-06
8.70021e-06
8.70028e-06
8.70058e-06
8.70054e-06
8.70092e-06
8.70059e-06
8.70127e-06
8.70169e-06
8.70234e-06
8.70297e-06
8.70372e-06
8.70349e-06
8.70691e-06
8.70759e-06
8.70748e-06
8.70715e-06
8.70719e-06
8.70571e-06
8.70707e-06
8.70517e-06
8.70832e-06
8.71212e-06
8.70876e-06
8.70591e-06
8.70883e-06
8.72705e-06
8.72911e-06
8.71994e-06
8.72795e-06
8.71425e-06
8.71593e-06
8.78717e-06
8.78236e-06
8.7388e-06
8.78318e-06
8.7e-06
8.7e-06
8.7e-06
8.7e-06
8.7e-06
8.7e-06
8.70001e-06
8.70001e-06
8.70002e-06
8.70002e-06
8.70007e-06
8.7001e-06
8.70014e-06
8.70034e-06
8.70044e-06
8.70037e-06
8.70037e-06
8.70096e-06
8.70065e-06
8.70152e-06
8.7017e-06
8.70353e-06
8.70429e-06
8.70426e-06
8.70393e-06
8.70805e-06
8.70894e-06
8.7087e-06
8.70863e-06
8.70732e-06
8.70722e-06
8.70835e-06
8.70824e-06
8.70975e-06
8.71087e-06
8.70941e-06
8.70777e-06
8.71246e-06
8.72965e-06
8.72852e-06
8.71281e-06
8.71755e-06
8.71185e-06
8.71718e-06
8.7673e-06
8.77757e-06
8.74609e-06
8.74051e-06
8.7e-06
8.7e-06
8.7e-06
8.7e-06
8.7e-06
8.7e-06
8.70001e-06
8.70001e-06
8.70002e-06
8.70002e-06
8.70009e-06
8.70008e-06
8.70012e-06
8.70022e-06
8.70026e-06
8.70039e-06
8.70048e-06
8.70117e-06
8.70065e-06
8.70148e-06
8.70204e-06
8.70324e-06
8.70342e-06
8.70347e-06
8.70368e-06
8.70722e-06
8.7084e-06
8.70488e-06
8.7076e-06
8.70523e-06
8.70941e-06
8.70381e-06
8.70936e-06
8.71254e-06
8.71508e-06
8.70976e-06
8.70705e-06
8.70844e-06
8.72523e-06
8.72601e-06
8.7183e-06
8.71804e-06
8.71283e-06
8.72248e-06
8.73836e-06
8.77755e-06
8.73935e-06
8.73337e-06
8.7e-06
8.7e-06
8.7e-06
8.7e-06
8.7e-06
8.7e-06
8.70001e-06
8.70001e-06
8.70002e-06
8.70002e-06
8.70009e-06
8.7001e-06
8.70013e-06
8.70023e-06
8.70026e-06
8.70039e-06
8.70062e-06
8.70084e-06
8.7008e-06
8.70162e-06
8.70235e-06
8.7038e-06
8.70467e-06
8.70302e-06
8.70487e-06
8.70872e-06
8.70974e-06
8.70855e-06
8.70814e-06
8.70787e-06
8.70555e-06
8.70933e-06
8.70904e-06
8.71188e-06
8.71645e-06
8.70883e-06
8.70544e-06
8.7078e-06
8.72644e-06
8.72947e-06
8.71609e-06
8.71742e-06
8.71327e-06
8.72231e-06
8.74926e-06
8.7332e-06
8.71957e-06
8.72594e-06
8.7e-06
8.7e-06
8.7e-06
8.7e-06
8.7e-06
8.7e-06
8.70001e-06
8.70001e-06
8.70002e-06
8.70002e-06
8.70008e-06
8.70008e-06
8.70013e-06
8.70027e-06
8.70026e-06
8.70044e-06
8.70071e-06
8.70107e-06
8.70038e-06
8.70189e-06
8.70186e-06
8.70161e-06
8.70195e-06
8.70313e-06
8.70365e-06
8.70398e-06
8.70478e-06
8.70565e-06
8.71021e-06
8.70693e-06
8.70728e-06
8.70598e-06
8.70704e-06
8.71251e-06
8.7138e-06
8.70832e-06
8.70842e-06
8.71013e-06
8.71759e-06
8.72519e-06
8.71723e-06
8.712e-06
8.71402e-06
8.72802e-06
8.73692e-06
8.72861e-06
8.71667e-06
8.71395e-06
8.7e-06
8.7e-06
8.7e-06
8.7e-06
8.7e-06
8.7e-06
8.70001e-06
8.70001e-06
8.70002e-06
8.70002e-06
8.70009e-06
8.70006e-06
8.70017e-06
8.70028e-06
8.70031e-06
8.70047e-06
8.70083e-06
8.70127e-06
8.70058e-06
8.70186e-06
8.70206e-06
8.70257e-06
8.70328e-06
8.70278e-06
8.70456e-06
8.70644e-06
8.70689e-06
8.70719e-06
8.71051e-06
8.70869e-06
8.70934e-06
8.707e-06
8.70774e-06
8.7046e-06
8.71424e-06
8.71125e-06
8.71219e-06
8.70639e-06
8.71652e-06
8.70822e-06
8.71858e-06
8.71175e-06
8.71828e-06
8.72988e-06
8.73029e-06
8.72048e-06
8.71e-06
8.7077e-06
8.7e-06
8.7e-06
8.7e-06
8.7e-06
8.70001e-06
8.70001e-06
8.70001e-06
8.70001e-06
8.70002e-06
8.70003e-06
8.70005e-06
8.70006e-06
8.70018e-06
8.7003e-06
8.70027e-06
8.70029e-06
8.70044e-06
8.70063e-06
8.70054e-06
8.70209e-06
8.70219e-06
8.70222e-06
8.70383e-06
8.70356e-06
8.70542e-06
8.70593e-06
8.70684e-06
8.70771e-06
8.71207e-06
8.70988e-06
8.70767e-06
8.7077e-06
8.70876e-06
8.70963e-06
8.71138e-06
8.71226e-06
8.71298e-06
8.70972e-06
8.71296e-06
8.71267e-06
8.71519e-06
8.71721e-06
8.71793e-06
8.73105e-06
8.7131e-06
8.71974e-06
8.70691e-06
8.70717e-06
8.7e-06
8.7e-06
8.7e-06
8.7e-06
8.70001e-06
8.70001e-06
8.70001e-06
8.70001e-06
8.70002e-06
8.70003e-06
8.70005e-06
8.70006e-06
8.70012e-06
8.70011e-06
8.70023e-06
8.70027e-06
8.70048e-06
8.70123e-06
8.7008e-06
8.70247e-06
8.70203e-06
8.70293e-06
8.70375e-06
8.70525e-06
8.70603e-06
8.70688e-06
8.70792e-06
8.70872e-06
8.70743e-06
8.71213e-06
8.71243e-06
8.70889e-06
8.70791e-06
8.70916e-06
8.71042e-06
8.70973e-06
8.71365e-06
8.70937e-06
8.71545e-06
8.71155e-06
8.71558e-06
8.71498e-06
8.71198e-06
8.73253e-06
8.71913e-06
8.71662e-06
8.70709e-06
8.70534e-06
8.7e-06
8.7e-06
8.7e-06
8.7e-06
8.70001e-06
8.70001e-06
8.70001e-06
8.70001e-06
8.70002e-06
8.70003e-06
8.70005e-06
8.70006e-06
8.70011e-06
8.70015e-06
8.70022e-06
8.70026e-06
8.7005e-06
8.70072e-06
8.70097e-06
8.70079e-06
8.70142e-06
8.70324e-06
8.70438e-06
8.70501e-06
8.70665e-06
8.7081e-06
8.70969e-06
8.71032e-06
8.71326e-06
8.71097e-06
8.70732e-06
8.71081e-06
8.70874e-06
8.70833e-06
8.71143e-06
8.70883e-06
8.71354e-06
8.70945e-06
8.71498e-06
8.71321e-06
8.71689e-06
8.71212e-06
8.71906e-06
8.72405e-06
8.71509e-06
8.71925e-06
8.70519e-06
8.70621e-06
8.7e-06
8.7e-06
8.7e-06
8.7e-06
8.70001e-06
8.70001e-06
8.70001e-06
8.70002e-06
8.70002e-06
8.70003e-06
8.70005e-06
8.70008e-06
8.70011e-06
8.70014e-06
8.7002e-06
8.70022e-06
8.70052e-06
8.70073e-06
8.70097e-06
8.70125e-06
8.70184e-06
8.703e-06
8.70369e-06
8.70498e-06
8.70678e-06
8.70807e-06
8.70985e-06
8.71103e-06
8.705e-06
8.71008e-06
8.71059e-06
8.71141e-06
8.70901e-06
8.71159e-06
8.71335e-06
8.70932e-06
8.71559e-06
8.70784e-06
8.70762e-06
8.7166e-06
8.71631e-06
8.71698e-06
8.72233e-06
8.72693e-06
8.71735e-06
8.72171e-06
8.70604e-06
8.70929e-06
8.7e-06
8.7e-06
8.7e-06
8.7e-06
8.70001e-06
8.70001e-06
8.70001e-06
8.70002e-06
8.70002e-06
8.70003e-06
8.70005e-06
8.70008e-06
8.7001e-06
8.70018e-06
8.70024e-06
8.70031e-06
8.70052e-06
8.70066e-06
8.70089e-06
8.70129e-06
8.70169e-06
8.70305e-06
8.70364e-06
8.70542e-06
8.70675e-06
8.70852e-06
8.70968e-06
8.71069e-06
8.70854e-06
8.71156e-06
8.71157e-06
8.71158e-06
8.70892e-06
8.71141e-06
8.70909e-06
8.7131e-06
8.715e-06
8.71035e-06
8.7148e-06
8.71899e-06
8.71914e-06
8.72028e-06
8.72263e-06
8.7281e-06
8.72167e-06
8.72472e-06
8.70649e-06
8.712e-06
8.7e-06
8.7e-06
8.7e-06
8.7e-06
8.70001e-06
8.70001e-06
8.70001e-06
8.70002e-06
8.70002e-06
8.70004e-06
8.70006e-06
8.70008e-06
8.70014e-06
8.7002e-06
8.70031e-06
8.70039e-06
8.7006e-06
8.70084e-06
8.70106e-06
8.70145e-06
8.70216e-06
8.70333e-06
8.70407e-06
8.70564e-06
8.70722e-06
8.70889e-06
8.70993e-06
8.70985e-06
8.71074e-06
8.71205e-06
8.71191e-06
8.71204e-06
8.70875e-06
8.71156e-06
8.71175e-06
8.71266e-06
8.71498e-06
8.71265e-06
8.71947e-06
8.72124e-06
8.71988e-06
8.72564e-06
8.72044e-06
8.72947e-06
8.72731e-06
8.72515e-06
8.70795e-06
8.71319e-06
8.7e-06
8.7e-06
8.70001e-06
8.70001e-06
8.70001e-06
8.70001e-06
8.70001e-06
8.70002e-06
8.70003e-06
8.70004e-06
8.70006e-06
8.7001e-06
8.70014e-06
8.7002e-06
8.70032e-06
8.7004e-06
8.70063e-06
8.70079e-06
8.7013e-06
8.70124e-06
8.70234e-06
8.7035e-06
8.70403e-06
8.70616e-06
8.70598e-06
8.7088e-06
8.71141e-06
8.71348e-06
8.7134e-06
8.71435e-06
8.71077e-06
8.71168e-06
8.70819e-06
8.71221e-06
8.71411e-06
8.71084e-06
8.71582e-06
8.71615e-06
8.72079e-06
8.72261e-06
8.72178e-06
8.7262e-06
8.72458e-06
8.73149e-06
8.73383e-06
8.72695e-06
8.70936e-06
8.71377e-06
8.7e-06
8.7e-06
8.70001e-06
8.70001e-06
8.70001e-06
8.70001e-06
8.70001e-06
8.70002e-06
8.70003e-06
8.70004e-06
8.70006e-06
8.70009e-06
8.70015e-06
8.70022e-06
8.70029e-06
8.70036e-06
8.70078e-06
8.70104e-06
8.70122e-06
8.70167e-06
8.70243e-06
8.70359e-06
8.70424e-06
8.70633e-06
8.70725e-06
8.70777e-06
8.71149e-06
8.71414e-06
8.71346e-06
8.7129e-06
8.71513e-06
8.71307e-06
8.70801e-06
8.7122e-06
8.7143e-06
8.71345e-06
8.71509e-06
8.71376e-06
8.7218e-06
8.72467e-06
8.72325e-06
8.72706e-06
8.72669e-06
8.73179e-06
8.7313e-06
8.72376e-06
8.70927e-06
8.71334e-06
8.7e-06
8.7e-06
8.70001e-06
8.70001e-06
8.70001e-06
8.70001e-06
8.70001e-06
8.70002e-06
8.70003e-06
8.70004e-06
8.70007e-06
8.70011e-06
8.70014e-06
8.70018e-06
8.70035e-06
8.70049e-06
8.70082e-06
8.70104e-06
8.70161e-06
8.70157e-06
8.70263e-06
8.70388e-06
8.70426e-06
8.7067e-06
8.70634e-06
8.71078e-06
8.71184e-06
8.71497e-06
8.71174e-06
8.71593e-06
8.71447e-06
8.71329e-06
8.70967e-06
8.71058e-06
8.71493e-06
8.71144e-06
8.72005e-06
8.71666e-06
8.72351e-06
8.72556e-06
8.72594e-06
8.72456e-06
8.73273e-06
8.73157e-06
8.7381e-06
8.72641e-06
8.71375e-06
8.71923e-06
8.7e-06
8.7e-06
8.70001e-06
8.70001e-06
8.70001e-06
8.70001e-06
8.70001e-06
8.70002e-06
8.70003e-06
8.70005e-06
8.70008e-06
8.70011e-06
8.70017e-06
8.70022e-06
8.70032e-06
8.70047e-06
8.70091e-06
8.70097e-06
8.70164e-06
8.70213e-06
8.70269e-06
8.70398e-06
8.70384e-06
8.70653e-06
8.70851e-06
8.71099e-06
8.71196e-06
8.71534e-06
8.71517e-06
8.71595e-06
8.71798e-06
8.71523e-06
8.71077e-06
8.71559e-06
8.71368e-06
8.71709e-06
8.72036e-06
8.71468e-06
8.72396e-06
8.72618e-06
8.7256e-06
8.72745e-06
8.73379e-06
8.73306e-06
8.73901e-06
8.72364e-06
8.71525e-06
8.72346e-06
8.7e-06
8.70001e-06
8.70001e-06
8.70001e-06
8.70001e-06
8.70001e-06
8.70002e-06
8.70002e-06
8.70003e-06
8.70005e-06
8.70008e-06
8.7001e-06
8.70016e-06
8.7002e-06
8.70035e-06
8.70068e-06
8.70095e-06
8.70118e-06
8.70172e-06
8.70236e-06
8.70246e-06
8.70407e-06
8.70552e-06
8.70812e-06
8.70801e-06
8.71035e-06
8.71443e-06
8.7161e-06
8.7122e-06
8.71659e-06
8.71826e-06
8.71781e-06
8.7147e-06
8.71954e-06
8.71682e-06
8.72089e-06
8.72108e-06
8.7199e-06
8.7251e-06
8.72779e-06
8.72989e-06
8.72746e-06
8.73351e-06
8.73506e-06
8.74124e-06
8.72451e-06
8.71732e-06
8.72185e-06
8.70001e-06
8.70001e-06
8.70001e-06
8.70001e-06
8.70001e-06
8.70001e-06
8.70002e-06
8.70002e-06
8.70004e-06
8.70006e-06
8.70009e-06
8.70011e-06
8.70019e-06
8.70027e-06
8.70038e-06
8.70072e-06
8.70102e-06
8.70146e-06
8.7015e-06
8.70236e-06
8.7033e-06
8.70391e-06
8.70576e-06
8.70833e-06
8.71003e-06
8.71356e-06
8.71461e-06
8.71359e-06
8.71366e-06
8.71647e-06
8.71937e-06
8.71772e-06
8.71841e-06
8.71995e-06
8.72063e-06
8.72131e-06
8.71838e-06
8.72469e-06
8.72403e-06
8.72802e-06
8.73012e-06
8.72907e-06
8.73247e-06
8.73838e-06
8.74162e-06
8.72671e-06
8.72123e-06
8.72866e-06
8.70001e-06
8.70001e-06
8.70001e-06
8.70001e-06
8.70001e-06
8.70001e-06
8.70002e-06
8.70002e-06
8.70003e-06
8.70006e-06
8.70009e-06
8.70013e-06
8.70019e-06
8.70033e-06
8.70045e-06
8.70078e-06
8.70095e-06
8.70138e-06
8.70189e-06
8.70217e-06
8.70313e-06
8.70444e-06
8.70609e-06
8.70881e-06
8.70875e-06
8.71375e-06
8.71542e-06
8.71725e-06
8.71264e-06
8.71659e-06
8.71951e-06
8.71816e-06
8.71731e-06
8.72062e-06
8.7201e-06
8.72158e-06
8.72158e-06
8.72481e-06
8.72755e-06
8.72903e-06
8.73043e-06
8.7321e-06
8.73603e-06
8.73763e-06
8.74405e-06
8.73233e-06
8.72007e-06
8.73224e-06
8.70001e-06
8.70001e-06
8.70001e-06
8.70001e-06
8.70001e-06
8.70001e-06
8.70002e-06
8.70003e-06
8.70004e-06
8.70006e-06
8.7001e-06
8.70013e-06
8.70023e-06
8.70033e-06
8.70054e-06
8.70079e-06
8.70113e-06
8.70168e-06
8.70168e-06
8.70301e-06
8.70368e-06
8.70435e-06
8.70618e-06
8.70888e-06
8.71071e-06
8.71438e-06
8.71511e-06
8.71771e-06
8.71414e-06
8.71561e-06
8.72052e-06
8.71753e-06
8.72058e-06
8.72063e-06
8.72046e-06
8.72281e-06
8.72479e-06
8.72585e-06
8.72832e-06
8.72859e-06
8.73425e-06
8.73428e-06
8.73768e-06
8.73952e-06
8.74434e-06
8.73445e-06
8.72883e-06
8.73325e-06
8.70001e-06
8.70001e-06
8.70001e-06
8.70001e-06
8.70001e-06
8.70001e-06
8.70002e-06
8.70003e-06
8.70003e-06
8.70006e-06
8.70008e-06
8.70017e-06
8.7002e-06
8.70033e-06
8.70051e-06
8.70079e-06
8.70114e-06
8.7017e-06
8.70233e-06
8.70314e-06
8.7042e-06
8.70487e-06
8.70608e-06
8.70887e-06
8.70893e-06
8.71201e-06
8.71538e-06
8.71768e-06
8.71865e-06
8.7128e-06
8.72039e-06
8.72134e-06
8.71737e-06
8.72002e-06
8.71647e-06
8.7224e-06
8.72464e-06
8.72594e-06
8.72863e-06
8.729e-06
8.73432e-06
8.74036e-06
8.74394e-06
8.74043e-06
8.74606e-06
8.73507e-06
8.73436e-06
8.73041e-06
8.70001e-06
8.70001e-06
8.70001e-06
8.70001e-06
8.70001e-06
8.70001e-06
8.70002e-06
8.70003e-06
8.70004e-06
8.70006e-06
8.70009e-06
8.70015e-06
8.70024e-06
8.70035e-06
8.70059e-06
8.70077e-06
8.70101e-06
8.70171e-06
8.70202e-06
8.70344e-06
8.70425e-06
8.70524e-06
8.70622e-06
8.70929e-06
8.71048e-06
8.71453e-06
8.71476e-06
8.71797e-06
8.7189e-06
8.71595e-06
8.71717e-06
8.72102e-06
8.72037e-06
8.72023e-06
8.71843e-06
8.72313e-06
8.72548e-06
8.72674e-06
8.73008e-06
8.72803e-06
8.73024e-06
8.74074e-06
8.74401e-06
8.74183e-06
8.74176e-06
8.74392e-06
8.76744e-06
8.74626e-06
8.70001e-06
8.70001e-06
8.70001e-06
8.70001e-06
8.70001e-06
8.70001e-06
8.70002e-06
8.70003e-06
8.70004e-06
8.70007e-06
8.7001e-06
8.70018e-06
8.70024e-06
8.70045e-06
8.70064e-06
8.70087e-06
8.70122e-06
8.70161e-06
8.70256e-06
8.7036e-06
8.70433e-06
8.70617e-06
8.70584e-06
8.70786e-06
8.70984e-06
8.71514e-06
8.71236e-06
8.71723e-06
8.72013e-06
8.71925e-06
8.72086e-06
8.72061e-06
8.71942e-06
8.71797e-06
8.72022e-06
8.71986e-06
8.721e-06
8.72672e-06
8.72556e-06
8.72449e-06
8.73697e-06
8.73629e-06
8.74628e-06
8.74369e-06
8.74787e-06
8.75038e-06
8.80488e-06
8.75952e-06
8.70001e-06
8.70001e-06
8.70001e-06
8.70001e-06
8.70001e-06
8.70002e-06
8.70002e-06
8.70004e-06
8.70004e-06
8.70008e-06
8.70008e-06
8.70019e-06
8.70027e-06
8.70046e-06
8.70064e-06
8.70084e-06
8.70133e-06
8.70182e-06
8.70273e-06
8.70389e-06
8.70429e-06
8.70615e-06
8.70487e-06
8.70938e-06
8.70827e-06
8.71485e-06
8.716e-06
8.71446e-06
8.72e-06
8.72048e-06
8.71659e-06
8.71971e-06
8.71628e-06
8.72089e-06
8.72094e-06
8.72379e-06
8.72234e-06
8.72696e-06
8.72852e-06
8.73086e-06
8.73693e-06
8.74507e-06
8.74719e-06
8.74793e-06
8.74664e-06
8.75431e-06
8.81842e-06
8.73692e-06
8.70001e-06
8.70001e-06
8.70001e-06
8.70001e-06
8.70001e-06
8.70002e-06
8.70002e-06
8.70004e-06
8.70005e-06
8.70008e-06
8.70009e-06
8.7002e-06
8.70027e-06
8.70047e-06
8.70063e-06
8.70096e-06
8.7013e-06
8.70185e-06
8.70253e-06
8.70391e-06
8.70428e-06
8.70525e-06
8.7062e-06
8.70877e-06
8.70998e-06
8.71223e-06
8.71724e-06
8.71822e-06
8.71987e-06
8.71611e-06
8.71849e-06
8.71665e-06
8.7207e-06
8.71998e-06
8.7204e-06
8.7229e-06
8.72142e-06
8.72189e-06
8.72817e-06
8.7343e-06
8.73686e-06
8.74511e-06
8.7481e-06
8.74815e-06
8.73868e-06
8.75421e-06
8.757e-06
8.75711e-06
8.70001e-06
8.70001e-06
8.70001e-06
8.70001e-06
8.70001e-06
8.70002e-06
8.70002e-06
8.70004e-06
8.70006e-06
8.70009e-06
8.7001e-06
8.7002e-06
8.70024e-06
8.70047e-06
8.70069e-06
8.7011e-06
8.70149e-06
8.70209e-06
8.70306e-06
8.70343e-06
8.70401e-06
8.70625e-06
8.70789e-06
8.71014e-06
8.71197e-06
8.71438e-06
8.71667e-06
8.71907e-06
8.71928e-06
8.71765e-06
8.71992e-06
8.72048e-06
8.72193e-06
8.72038e-06
8.72092e-06
8.72331e-06
8.72124e-06
8.72293e-06
8.72938e-06
8.73434e-06
8.73626e-06
8.7395e-06
8.7466e-06
8.75302e-06
8.74579e-06
8.76559e-06
8.77149e-06
8.76277e-06
8.70001e-06
8.70001e-06
8.70001e-06
8.70001e-06
8.70001e-06
8.70002e-06
8.70003e-06
8.70004e-06
8.70006e-06
8.70009e-06
8.7001e-06
8.70021e-06
8.70028e-06
8.70048e-06
8.70068e-06
8.70111e-06
8.70152e-06
8.70234e-06
8.70305e-06
8.70416e-06
8.70368e-06
8.70515e-06
8.70788e-06
8.70815e-06
8.71264e-06
8.71098e-06
8.71592e-06
8.71483e-06
8.71988e-06
8.71868e-06
8.71976e-06
8.71572e-06
8.72136e-06
8.71989e-06
8.71639e-06
8.71863e-06
8.72188e-06
8.7235e-06
8.72816e-06
8.73433e-06
8.7364e-06
8.74793e-06
8.74187e-06
8.75294e-06
8.75331e-06
8.80137e-06
8.74842e-06
8.81147e-06
8.70001e-06
8.70001e-06
8.70001e-06
8.70001e-06
8.70001e-06
8.70002e-06
8.70003e-06
8.70003e-06
8.70006e-06
8.70009e-06
8.70008e-06
8.70022e-06
8.70027e-06
8.70052e-06
8.7008e-06
8.70114e-06
8.7018e-06
8.70238e-06
8.70307e-06
8.70359e-06
8.7041e-06
8.70574e-06
8.70825e-06
8.70868e-06
8.70999e-06
8.71129e-06
8.71469e-06
8.71584e-06
8.71975e-06
8.7186e-06
8.72018e-06
8.71661e-06
8.72069e-06
8.71542e-06
8.71905e-06
8.71938e-06
8.72176e-06
8.7197e-06
8.7286e-06
8.73377e-06
8.73481e-06
8.74204e-06
8.75114e-06
8.75379e-06
8.75381e-06
8.80627e-06
8.81656e-06
8.83587e-06
8.70001e-06
8.70001e-06
8.70001e-06
8.70001e-06
8.70001e-06
8.70002e-06
8.70003e-06
8.70004e-06
8.70006e-06
8.70009e-06
8.7001e-06
8.7002e-06
8.70023e-06
8.70045e-06
8.70068e-06
8.70112e-06
8.7018e-06
8.70203e-06
8.70336e-06
8.70406e-06
8.70519e-06
8.70636e-06
8.70665e-06
8.70827e-06
8.71074e-06
8.71089e-06
8.714e-06
8.71641e-06
8.71901e-06
8.71782e-06
8.7154e-06
8.7175e-06
8.71622e-06
8.71749e-06
8.71928e-06
8.71862e-06
8.72101e-06
8.72335e-06
8.72786e-06
8.73386e-06
8.72987e-06
8.7502e-06
8.74548e-06
8.75416e-06
8.75863e-06
8.82256e-06
8.75027e-06
8.88217e-06
8.70001e-06
8.70001e-06
8.70001e-06
8.70001e-06
8.70001e-06
8.70002e-06
8.70003e-06
8.70004e-06
8.70005e-06
8.70008e-06
8.70008e-06
8.70025e-06
8.70029e-06
8.70054e-06
8.7008e-06
8.70113e-06
8.7018e-06
8.7023e-06
8.70331e-06
8.70331e-06
8.70515e-06
8.70627e-06
8.70728e-06
8.70842e-06
8.7112e-06
8.7111e-06
8.71451e-06
8.71628e-06
8.71832e-06
8.71557e-06
8.71665e-06
8.71724e-06
8.71775e-06
8.71739e-06
8.71818e-06
8.7196e-06
8.72076e-06
8.71847e-06
8.72689e-06
8.73692e-06
8.73255e-06
8.75103e-06
8.75359e-06
8.75323e-06
8.76349e-06
8.81345e-06
8.81377e-06
8.88691e-06
8.70001e-06
8.70001e-06
8.70001e-06
8.70001e-06
8.70001e-06
8.70002e-06
8.70002e-06
8.70005e-06
8.70007e-06
8.7001e-06
8.70013e-06
8.70025e-06
8.70037e-06
8.70056e-06
8.70082e-06
8.70106e-06
8.70177e-06
8.70241e-06
8.70333e-06
8.70354e-06
8.70532e-06
8.70678e-06
8.70773e-06
8.7091e-06
8.70922e-06
8.71259e-06
8.71382e-06
8.7152e-06
8.71378e-06
8.71375e-06
8.7161e-06
8.71642e-06
8.71754e-06
8.71463e-06
8.71829e-06
8.71585e-06
8.72017e-06
8.71905e-06
8.72542e-06
8.73647e-06
8.72795e-06
8.75096e-06
8.75411e-06
8.75715e-06
8.76778e-06
8.83586e-06
8.82661e-06
8.96454e-06
8.70001e-06
8.70001e-06
8.70001e-06
8.70001e-06
8.70001e-06
8.70002e-06
8.70003e-06
8.70005e-06
8.70007e-06
8.70009e-06
8.70015e-06
8.70025e-06
8.70038e-06
8.70054e-06
8.70078e-06
8.70092e-06
8.70182e-06
8.70237e-06
8.70334e-06
8.7036e-06
8.70431e-06
8.70654e-06
8.70745e-06
8.70746e-06
8.71109e-06
8.71245e-06
8.71314e-06
8.71497e-06
8.71557e-06
8.71347e-06
8.71198e-06
8.71587e-06
8.71312e-06
8.71317e-06
8.7139e-06
8.71594e-06
8.71561e-06
8.71732e-06
8.72574e-06
8.73611e-06
8.7365e-06
8.75353e-06
8.75918e-06
8.76208e-06
8.76013e-06
8.86392e-06
8.76245e-06
8.92476e-06
8.70001e-06
8.70001e-06
8.70001e-06
8.70001e-06
8.70002e-06
8.70002e-06
8.70003e-06
8.70005e-06
8.70007e-06
8.7001e-06
8.70013e-06
8.70026e-06
8.70041e-06
8.70048e-06
8.70078e-06
8.70106e-06
8.70176e-06
8.70226e-06
8.70315e-06
8.70415e-06
8.70442e-06
8.70638e-06
8.70777e-06
8.70832e-06
8.70847e-06
8.70918e-06
8.71185e-06
8.71338e-06
8.71505e-06
8.71371e-06
8.71377e-06
8.71158e-06
8.71318e-06
8.7123e-06
8.7139e-06
8.71512e-06
8.71608e-06
8.71739e-06
8.72574e-06
8.73514e-06
8.73707e-06
8.7549e-06
8.75815e-06
8.76731e-06
8.75112e-06
8.78243e-06
8.76063e-06
8.81702e-06
8.70001e-06
8.70001e-06
8.70001e-06
8.70001e-06
8.70002e-06
8.70002e-06
8.70003e-06
8.70005e-06
8.70007e-06
8.7001e-06
8.70017e-06
8.70025e-06
8.70041e-06
8.70058e-06
8.70076e-06
8.70124e-06
8.70161e-06
8.70228e-06
8.70318e-06
8.70432e-06
8.70425e-06
8.70611e-06
8.70584e-06
8.70832e-06
8.70861e-06
8.70957e-06
8.71131e-06
8.71292e-06
8.71088e-06
8.71311e-06
8.71268e-06
8.71141e-06
8.71131e-06
8.70926e-06
8.71196e-06
8.71361e-06
8.71228e-06
8.72071e-06
8.72586e-06
8.73573e-06
8.73447e-06
8.75625e-06
8.75776e-06
8.7679e-06
8.74784e-06
8.73028e-06
8.73576e-06
8.88452e-06
8.70001e-06
8.70001e-06
8.70001e-06
8.70001e-06
8.70002e-06
8.70002e-06
8.70003e-06
8.70005e-06
8.70006e-06
8.70011e-06
8.70018e-06
8.70021e-06
8.70042e-06
8.70055e-06
8.70061e-06
8.70131e-06
8.70174e-06
8.70226e-06
8.70307e-06
8.70422e-06
8.70465e-06
8.70585e-06
8.70589e-06
8.70625e-06
8.70888e-06
8.70947e-06
8.7096e-06
8.70922e-06
8.71089e-06
8.71124e-06
8.71097e-06
8.70858e-06
8.71041e-06
8.70867e-06
8.71097e-06
8.71035e-06
8.71468e-06
8.71585e-06
8.72486e-06
8.72983e-06
8.74408e-06
8.75492e-06
8.7508e-06
8.76776e-06
8.75712e-06
8.74518e-06
8.7342e-06
8.83981e-06
8.70001e-06
8.70001e-06
8.70001e-06
8.70001e-06
8.70002e-06
8.70002e-06
8.70003e-06
8.70005e-06
8.70007e-06
8.70011e-06
8.70017e-06
8.70023e-06
8.70041e-06
8.70056e-06
8.70074e-06
8.70108e-06
8.70161e-06
8.70223e-06
8.70291e-06
8.70404e-06
8.70458e-06
8.70545e-06
8.70513e-06
8.70615e-06
8.70861e-06
8.70898e-06
8.70879e-06
8.71017e-06
8.71004e-06
8.71046e-06
8.71011e-06
8.70858e-06
8.70943e-06
8.70738e-06
8.70995e-06
8.71044e-06
8.71057e-06
8.71531e-06
8.72516e-06
8.73074e-06
8.7431e-06
8.75566e-06
8.7625e-06
8.75671e-06
8.76315e-06
8.73211e-06
8.72246e-06
8.80682e-06
8.70001e-06
8.70001e-06
8.70001e-06
8.70001e-06
8.70002e-06
8.70003e-06
8.70003e-06
8.70005e-06
8.70007e-06
8.70009e-06
8.70017e-06
8.70026e-06
8.70041e-06
8.70045e-06
8.70084e-06
8.70113e-06
8.70156e-06
8.70214e-06
8.70239e-06
8.70378e-06
8.70443e-06
8.70542e-06
8.70537e-06
8.70492e-06
8.70646e-06
8.70756e-06
8.70762e-06
8.70949e-06
8.70657e-06
8.70692e-06
8.70823e-06
8.70706e-06
8.70598e-06
8.70636e-06
8.70648e-06
8.70851e-06
8.71003e-06
8.71263e-06
8.72353e-06
8.7291e-06
8.74175e-06
8.75691e-06
8.76339e-06
8.75948e-06
8.7701e-06
8.74028e-06
8.73937e-06
8.84746e-06
8.70001e-06
8.70001e-06
8.70001e-06
8.70001e-06
8.70002e-06
8.70002e-06
8.70004e-06
8.70005e-06
8.70008e-06
8.70011e-06
8.70016e-06
8.70026e-06
8.7004e-06
8.70055e-06
8.70086e-06
8.70107e-06
8.70128e-06
8.70214e-06
8.703e-06
8.7038e-06
8.70438e-06
8.70495e-06
8.70431e-06
8.70516e-06
8.70635e-06
8.70703e-06
8.70494e-06
8.70626e-06
8.70643e-06
8.70661e-06
8.70732e-06
8.70613e-06
8.70498e-06
8.70494e-06
8.70571e-06
8.70749e-06
8.70817e-06
8.712e-06
8.72173e-06
8.72882e-06
8.73917e-06
8.75489e-06
8.76313e-06
8.75733e-06
8.76921e-06
8.74406e-06
8.71033e-06
8.79455e-06
8.70001e-06
8.70001e-06
8.70001e-06
8.70002e-06
8.70002e-06
8.70002e-06
8.70003e-06
8.70005e-06
8.70008e-06
8.7001e-06
8.70014e-06
8.70025e-06
8.70038e-06
8.70055e-06
8.70069e-06
8.70102e-06
8.70136e-06
8.70196e-06
8.70241e-06
8.70374e-06
8.70321e-06
8.70478e-06
8.70411e-06
8.70566e-06
8.70593e-06
8.70451e-06
8.70534e-06
8.70545e-06
8.70385e-06
8.70526e-06
8.70456e-06
8.70534e-06
8.70373e-06
8.70385e-06
8.70497e-06
8.70623e-06
8.70647e-06
8.71048e-06
8.71937e-06
8.72811e-06
8.73494e-06
8.75607e-06
8.76342e-06
8.75099e-06
8.76667e-06
8.7417e-06
8.72038e-06
8.81759e-06
8.70001e-06
8.70001e-06
8.70002e-06
8.70002e-06
8.70002e-06
8.70002e-06
8.70004e-06
8.70004e-06
8.70008e-06
8.70009e-06
8.70016e-06
8.70025e-06
8.70036e-06
8.70053e-06
8.7007e-06
8.70098e-06
8.7015e-06
8.70179e-06
8.70251e-06
8.70351e-06
8.70319e-06
8.7042e-06
8.70375e-06
8.7054e-06
8.70399e-06
8.70419e-06
8.70375e-06
8.7037e-06
8.70376e-06
8.70446e-06
8.70373e-06
8.7033e-06
8.7031e-06
8.70274e-06
8.70303e-06
8.70487e-06
8.7051e-06
8.70958e-06
8.71826e-06
8.72499e-06
8.7392e-06
8.74786e-06
8.76311e-06
8.75208e-06
8.77001e-06
8.74368e-06
8.71866e-06
8.7811e-06
8.70001e-06
8.70002e-06
8.70002e-06
8.70002e-06
8.70002e-06
8.70002e-06
8.70004e-06
8.70005e-06
8.70008e-06
8.70011e-06
8.70016e-06
8.7002e-06
8.70036e-06
8.70054e-06
8.70067e-06
8.70104e-06
8.70145e-06
8.70191e-06
8.7024e-06
8.70286e-06
8.70298e-06
8.70388e-06
8.70351e-06
8.70373e-06
8.70341e-06
8.70241e-06
8.70284e-06
8.70317e-06
8.70341e-06
8.70401e-06
8.70283e-06
8.70315e-06
8.70297e-06
8.70299e-06
8.70342e-06
8.70534e-06
8.70455e-06
8.70825e-06
8.71381e-06
8.72596e-06
8.73743e-06
8.75071e-06
8.76222e-06
8.75134e-06
8.77257e-06
8.7387e-06
8.74015e-06
8.83677e-06
8.70001e-06
8.70001e-06
8.70002e-06
8.70002e-06
8.70002e-06
8.70002e-06
8.70004e-06
8.70004e-06
8.70008e-06
8.70011e-06
8.70015e-06
8.70024e-06
8.70035e-06
8.70051e-06
8.70063e-06
8.70101e-06
8.7014e-06
8.70187e-06
8.70221e-06
8.70296e-06
8.7031e-06
8.70325e-06
8.70324e-06
8.7033e-06
8.70237e-06
8.70201e-06
8.70211e-06
8.70272e-06
8.70416e-06
8.70375e-06
8.70338e-06
8.70267e-06
8.70367e-06
8.70281e-06
8.70307e-06
8.70585e-06
8.70438e-06
8.70733e-06
8.71317e-06
8.72409e-06
8.73656e-06
8.74631e-06
8.75317e-06
8.75465e-06
8.77926e-06
8.75782e-06
8.76525e-06
8.92238e-06
8.70002e-06
8.70002e-06
8.70002e-06
8.70002e-06
8.70002e-06
8.70003e-06
8.70004e-06
8.70004e-06
8.70008e-06
8.70009e-06
8.70015e-06
8.70025e-06
8.70034e-06
8.70048e-06
8.70061e-06
8.70095e-06
8.70135e-06
8.70173e-06
8.70222e-06
8.7029e-06
8.7023e-06
8.70279e-06
8.70277e-06
8.70242e-06
8.70192e-06
8.70157e-06
8.7017e-06
8.7025e-06
8.7046e-06
8.70393e-06
8.70371e-06
8.70425e-06
8.70442e-06
8.70432e-06
8.70504e-06
8.70689e-06
8.70506e-06
8.70719e-06
8.7115e-06
8.7213e-06
8.73284e-06
8.74923e-06
8.75714e-06
8.76431e-06
8.78611e-06
8.7757e-06
8.80265e-06
8.95108e-06
8.70001e-06
8.70002e-06
8.70002e-06
8.70002e-06
8.70002e-06
8.70003e-06
8.70004e-06
8.70005e-06
8.70007e-06
8.70011e-06
8.70015e-06
8.70024e-06
8.70028e-06
8.70044e-06
8.70058e-06
8.70091e-06
8.70106e-06
8.7017e-06
8.70217e-06
8.70212e-06
8.70283e-06
8.70271e-06
8.70245e-06
8.70197e-06
8.70136e-06
8.70158e-06
8.70171e-06
8.70256e-06
8.7056e-06
8.70551e-06
8.70541e-06
8.70538e-06
8.70784e-06
8.70411e-06
8.70813e-06
8.70772e-06
8.70575e-06
8.70646e-06
8.70959e-06
8.71943e-06
8.73097e-06
8.74032e-06
8.75441e-06
8.76684e-06
8.79798e-06
8.76656e-06
8.8262e-06
8.90957e-06
8.70002e-06
8.70002e-06
8.70002e-06
8.70002e-06
8.70003e-06
8.70003e-06
8.70004e-06
8.70006e-06
8.70008e-06
8.70011e-06
8.70012e-06
8.70024e-06
8.70034e-06
8.70043e-06
8.70052e-06
8.70085e-06
8.70111e-06
8.70153e-06
8.70162e-06
8.70206e-06
8.70201e-06
8.70224e-06
8.70215e-06
8.70149e-06
8.70093e-06
8.7015e-06
8.70229e-06
8.7036e-06
8.70636e-06
8.70711e-06
8.70809e-06
8.70864e-06
8.71157e-06
8.70718e-06
8.71012e-06
8.71213e-06
8.70844e-06
8.71012e-06
8.7076e-06
8.7146e-06
8.72343e-06
8.73831e-06
8.75486e-06
8.76888e-06
8.81395e-06
8.76926e-06
8.84409e-06
8.94816e-06
8.70002e-06
8.70002e-06
8.70002e-06
8.70002e-06
8.70003e-06
8.70003e-06
8.70004e-06
8.70006e-06
8.70008e-06
8.70012e-06
8.70015e-06
8.70023e-06
8.70028e-06
8.70032e-06
8.7005e-06
8.70076e-06
8.70093e-06
8.70146e-06
8.70159e-06
8.7019e-06
8.70193e-06
8.70189e-06
8.70122e-06
8.70109e-06
8.70094e-06
8.70173e-06
8.70247e-06
8.70466e-06
8.71046e-06
8.71074e-06
8.71125e-06
8.71053e-06
8.71275e-06
8.70935e-06
8.71384e-06
8.715e-06
8.71146e-06
8.71467e-06
8.70744e-06
8.7129e-06
8.7225e-06
8.73326e-06
8.75312e-06
8.74614e-06
8.74349e-06
8.74617e-06
8.84744e-06