/*--------------------------------*- C++ -*----------------------------------*\
  =========                 |
  \\      /  F ield         | OpenFOAM: The Open Source CFD Toolbox
   \\    /   O peration     | Website:  https://openfoam.org
    \\  /    A nd           | Version:  10
     \\/     M anipulation  |
\*---------------------------------------------------------------------------*/
FoamFile
{
    format      ascii;
    class       volScalarField;
    location    "5";
    object      p;
}
// * * * * * * * * * * * * * * * * * * * * * * * * * * * * * * * * * * * * * //

dimensions      [0 2 -2 0 0 0 0];

internalField   nonuniform List<scalar> 
38016
(
3.89592
4.35467
4.4478
4.61919
4.4438
4.43532
4.11185
3.79154
3.00256
1.6064
-0.650183
-3.77428
-9.54425
-18.1071
-30.259
-43.2928
-60.1024
-80.5504
-94.5235
-126.703
-146.081
-158.988
-115.412
-127.101
-46.3083
-1.73269
55.6669
50.8471
55.4429
59.2331
69.2199
8.82161
-17.9092
-10.0218
-23.282
-41.2667
-70.8366
-173.946
-265.633
-408.596
-354.359
-409.777
-454.986
-501.4
-670.754
-737.057
-772.163
-787.623
3.93485
4.39367
4.52163
4.70591
4.53942
4.53893
4.22893
3.91885
3.14647
1.75724
-0.494855
-3.58866
-9.35722
-18.057
-30.4665
-44.3911
-61.7412
-84.1828
-99.2576
-133.224
-144.753
-158.123
-131.836
-129.242
-49.5928
-4.15779
52.0207
21.2667
24.8563
28.0992
60.4521
9.35405
-13.6007
-6.9513
14.0128
-38.0186
-90.1714
-201.654
-297.935
-407.607
-410.548
-479.283
-534.733
-584.135
-652.37
-724.72
-758.376
-780.04
3.98041
4.44652
4.60043
4.79408
4.63532
4.64267
4.34588
4.04568
3.28957
1.90866
-0.309904
-3.36135
-9.12941
-17.8901
-30.7468
-45.4392
-62.0039
-84.7399
-99.967
-134.101
-145.181
-160.005
-137.923
-130.554
-52.3686
-5.78707
39.9281
20.0384
22.645
23.3518
39.6535
11.0953
-6.8686
-19.5568
-69.2355
-19.7211
-72.3151
-194.424
-288.991
-365.282
-441.317
-479.694
-502.16
-587.909
-575.99
-649.739
-695.508
-715.186
4.03347
4.50611
4.67892
4.87589
4.73
4.74509
4.46145
4.17111
3.43088
2.05835
-0.262597
-3.29228
-9.26404
-17.9594
-30.8147
-46.2569
-61.7146
-85.2546
-100.344
-134.682
-146.136
-163.285
-139.033
-131.786
-55.1815
-6.36528
41.4451
24.2368
27.4803
32.8206
39.4313
50.2032
36.2028
-10.1953
-64.0303
10.752
-53.8135
-184.443
-282.192
-332.396
-426.376
-461.887
-473.819
-539.812
-592.03
-649.494
-695.999
-744.18
4.0899
4.57097
4.7563
4.96049
4.82569
4.84854
4.57805
4.29757
3.57321
2.20976
-0.127474
-3.03559
-9.34375
-18.2743
-31.2656
-45.7463
-60.54
-84.0309
-98.2079
-132.935
-144.084
-160.097
-134.642
-124.163
-44.6342
8.63725
61.0373
47.4947
54.4989
64.431
59.892
69.8489
70.0067
31.584
-16.9304
-23.5149
-84.026
-174.553
-263.088
-361.535
-425.187
-466.748
-524.511
-524.09
-590.15
-652.706
-666.527
-713.037
4.14625
4.63636
4.83592
5.04364
4.92043
4.95099
4.69369
4.42319
3.71463
2.36057
0.132036
-3.00693
-9.06696
-17.9968
-30.8686
-44.7598
-60.5601
-82.6219
-95.8335
-131.037
-141.805
-158.639
-132.982
-121.374
-41.2494
13.4131
68.6223
56.6959
66.7172
82.5547
94.4032
68.1447
76.5553
30.7332
1.34382
-103.593
-166.512
-211.947
-270.195
-356.279
-419.841
-464.792
-508.698
-537.974
-577.707
-604.181
-658.233
-687.528
4.21078
4.70799
4.91489
5.12777
5.01603
5.05435
4.8102
4.54969
3.85683
2.51465
0.406064
-2.98834
-8.66697
-17.4278
-30.1136
-43.9208
-59.7294
-82.2165
-96.3689
-132.794
-144.85
-162.59
-138.264
-126.669
-48.9949
6.59034
59.6809
49.6166
59.5132
79.2017
122.695
69.4656
58.1031
40.4784
-2.21551
-102.172
-162.872
-210.041
-266.624
-316.266
-370.826
-401.739
-429.797
-453.442
-488.943
-540.649
-584.053
-648.765
4.27982
4.7794
4.9935
5.21104
5.11072
5.15675
4.9258
4.67535
3.99819
2.66846
0.482907
-2.71182
-8.27897
-16.9319
-29.4663
-44.1008
-58.8596
-80.5277
-97.4673
-131.615
-142.727
-159.702
-134.254
-121.068
-41.4705
16.4955
72.5409
65.2084
77.7222
100.368
160.034
102.028
33.8254
40.8995
9.83029
-54.5665
-111.08
-156.277
-204.571
-265.393
-314.502
-341.906
-374.04
-398.303
-422.471
-454.023
-495.127
-544.854
4.34986
4.85244
5.07279
5.29513
5.20629
5.26009
5.04228
4.80197
4.14039
2.82331
0.707893
-2.43416
-8.13058
-16.8129
-29.4246
-43.2956
-57.5721
-79.1121
-97.1586
-129.584
-139.123
-154.155
-127.224
-110.821
-27.501
36.234
97.505
97.4477
114.638
141.542
195.306
145.787
78.9179
17.4977
20.5479
-30.9503
-82.5103
-124.142
-160.805
-230.055
-270.386
-275.075
-310.709
-332.023
-352.49
-368.696
-398.643
-429.079
4.41789
4.92349
5.15128
5.37839
5.30093
5.36245
5.15783
4.9277
4.2817
2.97834
0.951825
-2.11948
-7.71122
-16.291
-28.776
-42.852
-57.2428
-80.114
-97.3354
-126.993
-135.794
-149.195
-121.102
-101.341
-14.8304
54.725
120.666
126.981
148.283
182.585
193.51
192.231
130.76
68.4432
-11.2494
-39.1116
-86.0315
-115.687
-142.744
-174.236
-206.325
-234.331
-260.369
-281.556
-294.909
-302.561
-312.4
-339.245
4.48847
4.99679
5.23061
5.46247
5.39646
5.46577
5.27427
5.05443
4.42391
3.13507
1.21622
-1.79192
-7.37695
-15.92
-28.3646
-42.3891
-56.7513
-79.1227
-98.9663
-124.016
-136.036
-151.422
-124.469
-102.873
-17.9957
53.1124
120.446
125.426
149.591
191.752
228.423
199.997
178.08
121.107
40.079
-3.30766
-48.9107
-85.8378
-122.883
-105.66
-131.028
-190.673
-214.194
-242.236
-250.647
-246.682
-248.377
-263.71
4.55651
5.06787
5.30907
5.54574
5.49106
5.56812
5.3898
5.18025
4.56524
3.29334
1.48885
-1.64101
-7.04508
-15.5436
-27.9371
-41.943
-56.2918
-78.786
-100.763
-123.365
-134.368
-148.738
-121.018
-97.5863
-10.2768
64.5362
136.689
147.717
177.812
219.95
259.39
232.843
220.512
134.976
99.9216
63.4532
21.4184
-20.9067
-47.7698
-47.4585
-69.7694
-113.17
-136.904
-158.583
-176.215
-187.001
-187.807
-195.547
4.6273
5.14126
5.38841
5.62982
5.58653
5.67143
5.50621
5.30709
4.7075
3.45253
1.66682
-1.50913
-6.70673
-15.1665
-27.5183
-42.2014
-57.2226
-78.2797
-102.556
-122.53
-133.628
-146.921
-119.084
-92.4689
-3.79726
77.3931
152.008
169.853
204.792
252.819
290.251
269.402
253.62
176.192
148.93
129.156
93.4684
52.9643
28.898
12.0534
-9.13305
-37.5656
-61.4774
-81.4374
-99.8657
-117.222
-130.036
-143.834
4.69547
5.21241
5.46687
5.71308
5.6811
5.77376
5.62171
5.43303
4.84891
3.61089
1.82215
-1.36957
-6.53309
-15.0804
-27.5688
-42.6482
-58.1693
-77.8103
-104.351
-121.753
-134.547
-145.286
-116.957
-88.5224
1.47216
88.2449
166.051
194.561
234.119
283.418
322.02
302.828
271.057
217.882
191.86
156.641
142.707
113.026
88.0497
69.3981
48.8941
31.2375
1.19821
-11.7182
-30.8175
-58.598
-78.9262
-98.4072
4.76645
5.28588
5.5462
5.79716
5.77652
5.87706
5.73811
5.56
4.99129
3.77015
1.98204
-1.23121
-6.44955
-15.1038
-27.7376
-43.0947
-59.097
-79.2501
-106.151
-124.141
-137.647
-144.433
-115.349
-89.5193
3.64066
90.7812
177.643
220.145
264.341
299.065
335.316
328.031
286.921
259.648
238.968
207.26
187.779
159.88
141.681
122.814
95.6302
64.1963
37.2423
17.7288
-1.85137
-21.5056
-38.6979
-56.3732
4.83478
5.3571
5.62465
5.88042
5.87105
5.97938
5.85361
5.6861
5.13287
3.92868
2.14021
-1.09244
-6.37079
-15.1286
-27.905
-43.5395
-60.0286
-80.7466
-107.954
-126.714
-140.849
-147.655
-119.982
-93.1944
-1.16496
88.4292
177.883
225.728
272.812
307.805
342.636
338.138
304.74
300.66
288.092
252.543
221.601
205.727
187.687
150.642
118.459
89.3126
65.4872
45.0845
27.1874
11.2878
-3.12198
-18.3636
4.90594
5.43063
5.70399
5.96451
5.96643
6.08269
5.97
5.81325
5.27549
4.08824
2.29994
-0.952297
-6.28831
-15.1497
-28.07
-43.9817
-60.9538
-82.2173
-109.756
-129.254
-144.01
-151.061
-124.865
-96.9498
-6.3277
85.8699
177.019
228.779
278.42
316.249
349.758
346.993
320.881
316.002
302.942
282.568
247.609
250.467
211.888
171.044
140.137
114.353
92.4242
73.8388
57.6778
43.3043
30.4531
16.882
4.97445
5.50193
5.78244
6.04778
6.06092
6.18502
6.08553
5.93957
5.41738
4.24721
2.4592
-0.811922
-6.20561
-15.1687
-28.2327
-44.4191
-61.8732
-83.6814
-111.552
-131.79
-147.173
-154.426
-129.658
-100.798
-11.4607
83.1163
176.2
232.235
284.505
324.146
356.749
356.153
335.671
327.89
313.735
294.529
266.171
253.606
221.279
188.68
161.033
137.612
117.818
100.891
86.2676
73.3785
61.8563
49.7123
5.04581
5.57554
5.86178
6.13187
6.15626
6.28834
6.20196
6.06699
5.56039
4.4074
2.62002
-0.669412
-6.11977
-15.1834
-28.3905
-44.85
-62.7818
-85.1295
-113.334
-134.302
-150.309
-157.807
-134.444
-104.709
-16.6538
80.1917
175.065
235.114
289.949
331.593
363.533
365.013
349.198
340.3
325.522
305.106
280.373
260.032
232.658
205.154
180.866
159.985
142.114
126.766
113.42
101.577
90.9596
79.775
5.1145
5.64691
5.94022
6.21515
6.25072
6.3907
6.31755
6.19362
5.70278
4.56718
2.78083
-0.526079
-6.03206
-15.1939
-28.543
-45.2718
-63.6774
-86.5562
-115.097
-136.786
-153.411
-161.164
-139.174
-108.663
-21.8508
77.1106
173.748
237.734
295.1
338.561
370.135
373.682
361.641
351.925
336.735
316.681
293.302
270.932
245.931
221.846
200.328
181.632
165.502
151.503
139.179
128.071
117.888
106.962
5.18608
5.72059
6.01957
6.29927
6.34603
6.49407
6.43406
6.32141
5.84642
4.7284
2.94358
-0.379854
-5.94009
-15.1981
-28.6872
-45.6819
-64.5546
-87.9572
-116.831
-139.228
-156.463
-164.489
-143.831
-112.637
-27.0316
73.8944
172.224
240
299.844
345.067
376.522
382.056
373.12
363.176
347.889
328.1
305.805
283.335
260.451
238.917
219.7
202.957
188.473
175.909
164.881
155.018
146.115
136.706
5.25497
5.79204
6.09801
6.38256
6.44047
6.59649
6.54978
6.44848
5.98956
4.88947
3.10682
-0.231968
-5.84473
-15.1956
-28.8223
-46.077
-65.41
-89.3237
-118.528
-141.615
-159.447
-167.754
-148.386
-116.595
-32.1571
70.5793
170.54
241.966
304.232
351.13
382.702
390.138
383.784
373.977
358.88
339.72
318.442
296.897
275.824
256.351
239.023
223.898
210.782
199.371
189.33
180.337
172.188
163.563
5.32676
5.8658
6.17737
6.4667
6.53576
6.69992
6.66644
6.57677
6.1341
5.05227
3.27253
-0.0802352
-5.74346
-15.1841
-28.9447
-46.4536
-66.2368
-90.6498
-120.176
-143.934
-162.345
-170.94
-152.807
-120.505
-37.1894
67.1944
168.713
243.631
308.252
356.761
388.655
397.899
393.744
384.402
369.778
351.435
331.338
311.115
291.763
274.043
258.269
244.431
232.339
221.752
212.388
204.005
196.433
188.511
5.39586
5.93734
6.25582
6.55003
6.63019
6.80244
6.78236
6.70445
6.27832
5.21524
3.43935
0.0742353
-5.63694
-15.1628
-29.0531
-46.8076
-67.0304
-91.925
-121.765
-146.166
-165.131
-174.012
-157.057
-124.32
-42.0788
63.7913
166.792
245.037
311.939
361.999
394.398
405.358
403.133
394.514
380.619
363.312
344.536
325.814
308.105
291.963
277.548
264.772
253.428
243.254
233.983
225.356
217.182
208.333
5.46791
6.01118
6.3352
6.6342
6.72548
6.90599
6.89926
6.83344
6.42413
5.38031
3.60932
0.233751
-5.52242
-15.1291
-29.1432
-47.1347
-67.7825
-93.1411
-123.278
-148.293
-167.784
-176.943
-161.097
-127.996
-46.7751
60.4129
164.809
246.205
315.305
366.865
399.926
412.523
412.047
404.368
391.435
375.34
358.004
340.844
324.74
310.122
297.097
285.571
275.365
266.258
258.035
250.495
243.475
236.006
5.53724
6.08281
6.41366
6.71757
6.81992
7.00865
7.01547
6.96192
6.56984
5.54596
3.78114
0.397343
-5.40033
-15.0818
-29.2131
-47.4297
-68.4867
-94.2853
-124.701
-150.294
-170.272
-179.692
-164.881
-131.473
-51.2146
57.127
162.829
247.189
318.398
371.412
405.271
419.44
420.602
414.041
402.265
387.525
371.693
356.091
341.506
328.315
316.608
306.302
297.24
289.223
282.057
275.561
269.566
263.198
5.60954
6.15675
6.49306
6.80179
6.91524
7.11237
7.13271
7.09184
6.71737
5.71415
3.95695
0.567464
-5.26765
-15.0177
-29.2579
-47.687
-69.1334
-95.3468
-126.017
-152.145
-172.567
-182.223
-168.357
-134.693
-55.3326
53.9936
160.901
248.028
321.249
375.675
410.449
426.142
428.882
423.589
413.131
399.852
385.552
371.444
358.236
346.255
335.585
326.147
317.788
310.323
303.564
297.33
291.384
284.759
5.67912
6.2285
6.57154
6.88521
7.00971
7.21523
7.24935
7.22138
6.86506
5.88342
4.13554
0.743285
-5.12457
-14.9354
-29.2748
-47.9004
-69.7143
-96.3108
-127.208
-153.82
-174.631
-184.487
-171.471
-137.584
-59.0521
51.0956
159.102
248.791
323.919
379.723
415.506
432.692
436.985
433.077
424.06
412.313
399.553
386.872
374.895
363.929
354.091
345.374
337.701
330.942
324.943
319.319
313.77
307.302
5.75168
6.30255
6.65098
6.9695
7.10508
7.31919
7.36706
7.35249
7.01485
6.05575
4.3191
0.927391
-4.96782
-14.8312
-29.2583
-48.0633
-70.218
-97.1636
-128.25
-155.291
-176.43
-186.438
-174.163
-140.077
-62.2975
48.5064
157.494
249.53
326.453
383.599
420.471
439.134
444.975
442.544
435.057
424.897
413.69
402.413
391.573
381.404
371.99
363.355
355.47
348.272
341.653
336.56
333.83
331.88
5.82151
6.37444
6.72948
7.053
7.19961
7.42232
7.48426
7.4834
7.1651
6.22972
4.50649
1.1191
-4.79736
-14.7033
-29.205
-48.1683
-70.6346
-97.8879
-129.124
-156.526
-177.92
-188.022
-176.37
-142.089
-64.9786
46.3236
156.168
250.329
328.929
387.384
425.406
445.538
452.932
452.035
446.126
437.581
427.97
418.195
408.692
399.605
390.927
382.589
374.507
366.594
358.751
350.935
342.992
341.59
5.89433
6.44865
6.80897
7.13737
7.29506
7.5266
7.6026
7.61602
7.31778
6.40739
4.7
1.32115
-4.60962
-14.5474
-29.1084
-48.2075
-70.9506
-98.4672
-129.803
-157.492
-179.059
-189.182
-178.021
-143.535
-67.0064
44.6372
155.202
251.259
331.41
391.137
430.357
451.956
460.906
461.571
457.246
450.295
442.276
434.118
426.312
419.109
412.599
406.808
401.701
397.226
393.271
389.708
386.373
383.152
5.96443
6.52069
6.88752
7.22096
7.3897
7.63009
7.72052
7.74862
7.47127
6.58733
4.89857
1.53299
-4.40431
-14.3613
-28.9643
-48.1722
-71.1542
-98.8814
-130.261
-158.154
-179.798
-189.858
-179.045
-144.323
-68.2801
43.5571
154.7
252.418
333.988
394.947
435.396
458.457
468.959
471.179
468.385
462.92
456.32
449.516
443.027
437.085
431.761
427.035
422.838
418.973
415.139
411.202
406.871
401.324
6.03758
6.59505
6.96707
7.30545
7.48527
7.73476
7.83968
7.88312
7.62754
6.77166
5.10454
1.75751
-4.1776
-14.1404
-28.7656
-48.0532
-71.2299
-99.1111
-130.47
-158.471
-180.09
-189.986
-179.364
-144.36
-68.7015
43.1854
154.753
253.89
336.74
398.884
440.578
465.094
477.133
480.871
479.523
475.368
469.896
463.986
458.09
452.373
446.883
441.589
436.445
431.779
428.527
426.864
425.442
425.197
6.10803
6.66727
7.04568
7.38917
7.58005
7.8387
7.95851
8.0178
7.785
6.95899
5.31692
1.99428
-3.92897
-13.8819
-28.5073
-47.8408
-71.1642
-99.1339
-130.399
-158.404
-179.878
-189.496
-178.899
-143.546
-68.1627
43.6399
155.472
255.785
339.769
403.044
445.981
471.933
485.477
490.68
490.672
487.667
483.103
477.842
472.344
466.831
461.427
456.194
451.181
446.438
441.674
436.507
435.799
436.815
6.18156
6.7418
7.12531
7.4738
7.67579
7.94388
8.07867
8.15457
7.94563
7.15146
5.53811
2.24628
-3.65437
-13.5807
-28.1816
-47.5245
-70.9399
-98.9273
-130.016
-157.91
-179.112
-188.322
-177.569
-141.781
-66.5613
45.0294
156.956
258.196
343.159
407.501
451.661
479.022
494.029
500.636
501.875
499.889
496.093
491.368
486.241
480.995
475.784
470.658
465.625
460.606
456.659
454.825
455.723
455.544
6.25241
6.81422
7.20399
7.55766
7.77076
8.04837
8.19861
8.29174
8.10787
7.34769
5.76717
2.51318
-3.35312
-13.234
-27.7829
-47.0937
-70.5416
-98.4672
-129.288
-156.944
-177.731
-186.39
-175.291
-138.964
-63.7885
47.4735
159.322
261.24
347.02
412.352
457.697
486.418
502.833
510.776
513.185
512.121
508.966
504.622
499.706
494.654
489.762
485.217
481.108
477.056
473.004
469.244
465.965
460.897
6.32636
6.88895
7.28373
7.64246
7.86672
8.15415
8.31998
8.43119
8.27367
7.54983
6.00652
2.79805
-3.02102
-12.8363
-27.3027
-46.5368
-69.9506
-97.7286
-128.18
-155.461
-175.68
-183.629
-171.983
-134.998
-59.7444
51.08
162.669
265.015
351.442
417.671
464.144
494.163
511.916
521.132
524.66
524.486
521.907
517.743
512.545
506.694
500.426
493.893
487.171
482.198
480.058
480.21
480.731
481.522
6.3976
6.96163
7.36251
7.72651
7.96192
8.2593
8.44124
8.57125
8.44148
7.75652
6.25521
3.10056
-2.6573
-12.3844
-26.7352
-45.8426
-69.1507
-96.6862
-126.658
-153.415
-172.9
-179.967
-167.564
-129.784
-54.327
55.9619
167.11
269.634
356.53
423.55
471.073
502.303
521.303
531.717
536.352
537.15
535.379
531.803
526.971
521.295
515.075
508.567
501.985
495.58
489.31
482.917
483.229
483.714
6.47191
7.03665
7.44237
7.81151
8.05814
8.36578
8.56401
8.71379
8.61326
7.96988
6.51567
3.42379
-2.2577
-11.8727
-26.0715
-44.999
-68.1222
-95.3136
-124.684
-150.757
-169.334
-175.334
-161.957
-123.233
-47.4467
62.2176
172.74
275.192
362.371
430.06
478.534
510.868
530.997
542.508
548.206
550.084
549.47
547.173
543.827
539.856
535.508
530.987
526.413
521.835
517.247
512.676
508.757
503.638
6.54353
7.10964
7.52128
7.89578
8.15364
8.47169
8.68679
8.85715
8.78743
8.18856
6.78694
3.76739
-1.82149
-11.2983
-25.3056
-43.9946
-66.8483
-93.5853
-122.223
-147.444
-164.924
-169.662
-155.089
-115.26
-39.0173
69.9443
179.658
281.794
369.065
437.286
486.591
519.895
540.997
553.434
560.036
562.856
563.299
562.206
560.271
557.888
555.221
552.39
549.453
546.455
543.437
540.512
537.537
533.888
6.6183
7.18497
7.60129
7.98101
8.25018
8.57898
8.81118
9.00317
8.96594
8.41463
7.07137
4.13437
-1.34451
-10.6554
-24.4288
-42.817
-65.3097
-91.4749
-119.24
-143.43
-159.619
-162.889
-146.893
-105.792
-28.9684
79.2209
187.944
289.521
376.688
445.29
495.291
529.412
551.299
564.426
571.622
574.955
575.832
575.082
573.425
571.275
568.795
566.156
563.415
560.626
557.772
555.013
552.396
550.025
6.69047
7.25829
7.68036
8.06553
8.34601
8.68575
8.93566
9.15018
9.14719
8.64668
7.36793
4.52424
-0.826224
-9.94145
-23.4356
-41.4558
-63.4904
-88.9585
-115.702
-138.672
-153.366
-154.957
-137.31
-94.7638
-17.2385
90.1195
197.677
298.463
385.326
454.147
504.696
539.464
561.925
575.467
582.893
586.233
586.896
585.638
583.159
579.849
575.86
571.387
566.572
561.402
555.871
550.09
544.345
538.527
6.76583
7.33394
7.76055
8.15103
8.44292
8.79394
9.06183
9.30002
9.33309
8.88675
7.67886
4.93984
-0.262739
-9.1511
-22.3177
-39.8992
-61.3724
-86.0118
-111.576
-133.133
-146.121
-145.816
-126.293
-82.127
-3.78531
102.691
208.915
308.682
395.04
463.912
514.853
550.099
572.932
586.629
593.94
596.903
596.968
594.936
591.634
587.578
582.94
577.947
572.693
567.85
563.906
561.431
559.632
555.786
6.83865
7.40761
7.8398
8.23582
8.53914
8.90165
9.18817
9.45099
9.522
9.13333
8.003
5.38045
0.346088
-8.28233
-21.0707
-38.1383
-58.9419
-82.6144
-106.835
-126.778
-137.847
-135.425
-113.804
-67.8469
11.4199
116.973
221.706
320.241
405.896
474.647
525.824
561.39
584.414
598.054
605.003
607.286
606.415
603.201
598.622
593.247
587.331
581.115
574.763
568.414
562.111
555.919
549.715
542.957
6.91469
7.48363
7.92021
8.32161
8.63646
9.01082
9.31625
9.6049
9.71578
9.38838
8.34244
5.84864
1.00368
-7.33057
-19.6874
-36.1632
-56.1841
-78.7464
-101.453
-119.578
-128.512
-123.755
-99.8206
-51.9057
28.3839
132.981
236.077
333.177
417.935
486.395
537.66
573.405
596.489
609.945
616.415
617.931
616.062
611.692
605.983
599.664
593.064
586.444
579.945
573.605
567.42
561.41
555.598
549.784
6.98822
7.55773
7.99967
8.4067
8.73311
9.11953
9.44455
9.76003
9.91275
9.65031
8.69582
6.34332
1.70958
-6.29486
-18.1652
-33.9678
-53.0892
-74.3939
-95.4116
-111.513
-118.094
-110.786
-84.3345
-34.3043
47.0964
150.712
252.043
347.521
431.2
499.206
550.419
586.226
609.278
622.506
628.516
629.338
626.51
620.91
613.704
605.617
596.979
588.113
579.218
570.323
561.399
552.433
543.774
534.421
7.06502
7.63417
8.08031
8.49281
8.83087
9.22972
9.57463
9.91815
10.1147
9.92094
9.065
6.8667
2.46651
-5.17175
-16.4988
-31.5449
-49.6475
-69.5439
-88.6961
-102.568
-106.584
-96.5156
-67.3527
-15.0624
67.5243
170.141
269.593
363.278
445.705
513.104
564.141
599.914
622.876
635.88
641.541
641.94
638.653
632.617
625.028
616.603
607.655
598.476
589.239
580.013
570.79
561.591
552.352
542.455
7.13938
7.70872
8.15999
8.57825
8.92799
9.33948
9.70497
10.0775
10.3199
10.1986
9.44841
7.41723
3.2732
-3.96177
-14.688
-28.8926
-45.8552
-64.1918
-81.3007
-92.7387
-93.9823
-80.9537
-48.9019
5.77922
89.6141
191.221
288.7
380.447
461.466
528.119
578.868
614.527
637.349
650.119
655.485
655.62
652.169
646.155
638.778
630.731
622.289
613.712
605.142
596.571
587.69
578.412
568.694
558.574
7.21702
7.78565
8.24088
8.66471
9.02622
9.45073
9.83707
10.2399
10.53
10.4848
9.84762
7.99662
4.13151
-2.6629
-12.7302
-26.0079
-41.7092
-58.3346
-73.2245
-82.0314
-80.3026
-64.1258
-29.0242
28.1606
113.291
213.884
309.315
398.996
478.47
544.255
594.623
630.103
652.737
665.216
670.206
669.952
666.172
659.982
652.611
644.795
636.804
628.81
620.83
613.097
606.998
603.334
602.265
601.392
7.29229
7.86074
8.32081
8.75051
9.12381
9.56154
9.96942
10.4035
10.7433
10.778
10.2608
8.6028
5.03913
-1.27756
-10.6281
-22.8939
-37.2137
-51.9791
-64.4782
-70.4634
-65.5735
-46.0762
-7.7832
52
138.458
238.038
331.37
418.885
496.7
561.515
611.429
646.683
669.083
681.203
685.661
684.72
680.08
672.868
664.251
655.047
645.666
636.409
627.096
617.449
607.528
597.591
588.147
577.57
7.37088
7.9382
8.40198
8.83736
9.22252
9.67384
10.1035
10.5699
10.9614
11.0794
10.6892
9.2369
5.9969
0.194461
-8.38256
-19.5529
-32.3738
-45.1345
-55.0781
-58.0621
-49.8364
-26.8627
14.7424
77.1973
164.999
263.573
354.774
440.048
516.113
579.877
629.287
664.29
686.444
698.167
702.018
700.242
694.528
686.016
675.719
664.396
652.434
639.999
628.932
621.325
617.127
615.939
616.037
615.827
7.44719
8.01389
8.48218
8.92356
9.32059
9.7857
10.2378
10.7375
11.1824
11.3873
11.1308
9.8963
7.0014
1.74864
-5.9998
-15.9938
-27.203
-37.8212
-45.0532
-44.8693
-33.1491
-6.56392
38.4515
103.631
192.779
290.357
379.418
462.405
536.659
599.317
648.194
682.95
704.877
716.237
719.512
716.947
710.265
700.777
689.39
677.035
664.347
651.685
639.376
627.406
615.424
603.036
590.137
584.185
7.52684
8.09194
8.56368
9.0108
9.41978
9.89902
10.3738
10.9078
11.4078
11.7028
11.5864
10.5815
8.05235
3.38328
-3.48408
-12.2247
-21.7156
-30.0617
-34.4382
-30.9361
-15.5818
14.7294
63.2303
131.166
221.644
318.241
405.173
485.855
558.26
619.781
668.122
702.661
724.42
735.49
738.323
735.206
728.025
718.201
706.735
694.594
682.353
670.3
658.535
647.026
635.733
624.727
614.105
603.586
7.60428
8.16823
8.64421
9.09741
9.51832
10.0119
10.5099
11.0791
11.6358
12.024
12.0536
11.2893
9.14518
5.09165
-0.84554
-8.2609
-15.9347
-21.8904
-23.2815
-16.3284
2.77899
36.9065
88.9437
159.644
251.425
347.056
431.893
510.279
580.828
641.208
689.035
723.408
745.067
755.926
758.344
754.597
746.557
735.661
722.788
708.861
694.5
680.04
665.631
651.372
637.337
623.711
610.404
596.446
7.6851
8.24683
8.72608
9.18509
9.61798
10.1261
10.6476
11.2529
11.8678
12.352
12.5333
12.0197
10.2785
6.8701
1.90812
-4.11607
-9.88371
-13.343
-11.6358
-1.11964
21.8366
59.847
115.447
188.9
281.939
376.622
459.415
535.542
604.253
663.51
710.863
745.142
766.794
777.519
779.592
775.252
766.409
754.519
740.531
725.433
709.9
694.363
679.077
664.216
649.864
635.978
622.83
608.85
7.76381
8.32368
8.80701
9.27213
9.71698
10.2399
10.7853
11.4273
12.1018
12.6847
13.0226
12.769
11.4468
8.70985
4.76318
0.188395
-3.59499
-4.46706
0.433198
14.6024
41.4788
83.4125
142.578
218.75
312.99
406.745
487.562
561.491
628.41
686.586
733.528
767.804
789.548
800.241
802.044
797.21
787.71
775.09
760.341
744.364
727.769
710.98
694.245
677.674
661.238
645.118
629.039
611.392
7.84591
8.40282
8.88933
9.36024
9.81708
10.355
10.9245
11.6041
12.3393
13.023
13.522
13.5366
12.6477
10.6056
7.70893
4.63382
2.90018
4.6902
12.8575
30.7451
61.5874
107.46
170.168
249.007
344.377
437.221
516.144
587.957
653.153
710.311
756.922
791.302
813.262
824.016
825.599
820.237
810.012
796.647
781.385
765.285
749.119
733.376
718.257
703.756
689.855
676.716
665.091
652.023
7.92602
8.48023
8.9707
9.44773
9.91652
10.4696
11.0636
11.7812
12.5783
13.3648
14.0287
14.3183
13.8748
12.5469
10.7287
9.19396
9.56204
14.0708
25.5571
47.2042
82.0313
131.83
198.036
279.468
375.888
467.837
544.959
614.762
678.324
734.546
780.924
815.536
837.855
848.812
850.237
844.247
832.839
817.639
799.873
780.459
760.254
739.929
719.742
699.682
679.665
659.607
639.997
614.254
8.00954
8.55995
9.05348
9.53631
10.017
10.5855
11.204
11.9603
12.82
13.7109
14.5429
15.1134
15.1252
14.5271
13.8095
13.8463
16.3535
23.6191
38.4536
63.8743
102.678
156.366
226.001
309.936
407.311
498.381
573.805
641.713
703.748
759.133
805.388
840.376
863.237
874.594
876.083
869.735
857.532
841.153
821.909
800.754
778.663
756.326
734.1
712.101
690.406
668.917
647.176
636.624
8.09119
8.6381
9.13524
9.62426
10.1169
10.7008
11.3442
12.1395
13.0625
14.0591
15.0617
15.9174
16.3917
16.5347
16.9328
18.5614
23.23
33.2705
51.4584
80.6411
123.386
180.9
253.871
340.203
438.429
528.631
602.465
668.612
729.241
783.898
830.155
865.68
889.285
901.296
903.166
896.824
884.273
867.124
846.647
823.722
799.459
774.707
749.944
725.341
701.038
677.132
653.637
648.636
8.17618
8.71868
9.21843
9.71332
10.2178
10.8174
11.4856
12.3203
13.3071
14.4103
15.5853
16.7292
17.6711
18.5624
20.0844
23.3147
30.1517
42.9656
64.4883
97.3941
144.018
205.269
281.465
370.069
469.035
558.377
630.732
695.254
754.61
808.657
855.044
891.272
915.843
928.782
931.369
925.528
913.306
896.514
876.463
854.078
830.384
806.225
781.964
757.785
733.725
709.81
685.976
661.832
8.25919
8.79782
9.30058
9.80175
10.318
10.9332
11.6266
12.5009
13.5519
14.7621
16.1105
17.5444
18.9562
20.5982
23.245
28.0758
37.0723
52.6378
77.4529
114.018
164.432
229.306
308.595
399.333
498.918
587.404
658.392
721.434
779.654
833.216
879.866
916.967
942.717
956.839
960.411
955.311
943.631
927.356
907.912
886.307
863.64
840.904
818.612
796.966
776.043
755.942
736.605
717.017
8.34546
8.87937
9.38421
9.89131
10.4192
11.0503
11.7686
12.6828
13.798
15.1155
16.6377
18.3619
20.2438
22.635
26.4009
32.8207
43.9531
62.2296
90.2721
130.406
184.498
252.861
335.091
427.813
527.891
615.522
685.252
746.958
804.18
857.382
904.422
942.559
969.698
985.223
989.965
985.661
974.339
957.944
937.878
915.093
890.351
864.504
838.125
811.443
784.54
757.42
729.947
701.11
8.43011
8.95951
9.46677
9.98022
10.5198
11.1666
11.9101
12.8642
14.0436
15.4682
17.164
19.1775
21.5269
24.6617
29.5339
37.5212
50.7519
71.6808
102.865
146.457
204.091
275.788
360.794
455.341
555.782
642.554
711.132
771.645
828.007
880.965
928.517
967.842
996.557
1013.7
1019.79
1016.38
1005.43
988.881
968.314
944.92
919.549
893.204
866.729
840.662
815.279
790.526
766.77
742.436
8.51808
9.04206
9.55089
10.0703
10.6214
11.2841
12.0526
13.0466
14.2902
15.8216
17.6902
19.9914
22.8046
26.6745
32.6362
42.1623
57.4439
80.9543
115.18
162.105
223.133
298
385.611
481.822
582.499
668.408
735.932
795.386
851.012
903.831
951.988
992.624
1023.09
1042.03
1049.66
1047.3
1036.81
1020.17
999.088
974.914
948.37
920.261
891.318
862.042
832.595
802.937
773.025
741.737
8.60456
9.12322
9.63393
10.1597
10.7222
11.4008
12.1945
13.2283
14.5358
16.1733
18.2135
20.7994
24.0705
28.6634
35.6919
46.7202
63.9941
90.0012
127.154
177.27
241.53
319.391
409.429
507.14
607.928
692.966
759.53
818.051
873.059
925.827
974.672
1016.72
1049.08
1070.04
1079.43
1078.32
1068.47
1051.8
1030.08
1004.68
976.556
946.5
915.267
883.607
852.012
820.648
789.928
757.813
8.69435
9.20665
9.71861
10.2503
10.8241
11.5186
12.3372
13.4108
14.7818
16.5245
18.7345
21.6012
25.3224
30.6229
38.6903
51.1758
70.3719
98.7764
138.723
191.871
259.183
339.847
432.123
531.165
631.939
716.095
781.785
839.492
893.988
946.787
996.384
1039.94
1074.35
1097.53
1108.94
1109.39
1100.51
1084.3
1062.62
1037.12
1008.98
978.945
947.602
915.595
883.41
851.306
819.638
786.038
8.78277
9.28864
9.80222
10.3402
10.9252
11.6356
12.4792
13.5923
15.0263
16.873
19.2504
22.3928
26.5542
32.5436
41.6167
55.5068
76.5448
107.235
149.83
205.834
276.004
359.268
453.583
553.781
654.414
737.676
802.57
859.57
913.652
966.547
1016.95
1062.09
1098.67
1124.29
1138
1140.28
1132.63
1117.01
1095.41
1069.63
1041.12
1010.96
979.887
948.392
917.05
886.216
856.292
825.551
8.87443
9.37288
9.88757
10.4314
11.0274
11.7535
12.6219
13.7744
15.2706
17.22
19.762
23.1742
27.7646
34.4217
44.4635
59.6995
82.491
115.344
160.429
219.103
291.924
377.574
473.723
574.901
675.27
757.625
821.794
878.185
931.937
984.982
1036.21
1082.98
1121.86
1150.11
1166.4
1170.84
1164.68
1149.74
1127.98
1101.19
1070.87
1038.15
1003.81
968.338
932.135
895.386
858.559
819.29
8.96484
9.45597
9.97183
10.5218
11.1287
11.8707
12.7638
13.9552
15.513
17.5633
20.2665
23.9419
28.9484
36.249
47.2184
63.7358
88.1846
123.069
170.475
231.621
306.876
394.69
492.464
594.443
694.427
775.861
839.37
895.24
948.735
1001.97
1054.04
1102.45
1143.7
1174.77
1193.94
1200.92
1196.66
1182.8
1161.26
1133.84
1102.17
1067.54
1030.97
993.176
954.768
916.153
878.009
837.403
9.05844
9.54136
10.0579
10.6135
11.2311
11.9888
12.9064
14.1365
15.7549
17.9043
20.7652
24.6963
30.1051
38.0234
49.8766
67.6066
93.6113
130.389
179.939
243.351
320.817
410.569
509.753
612.355
711.84
792.345
855.252
910.679
963.979
1017.42
1070.33
1120.37
1164.03
1198.07
1220.37
1230.31
1228.49
1216.38
1195.8
1168.6
1136.46
1100.78
1062.7
1023.12
982.717
941.786
901.193
858.147
9.15091
9.62565
10.1428
10.7044
11.3327
12.106
13.048
14.3163
15.9945
18.2409
21.2554
25.434
31.2299
39.7382
52.4283
71.2984
98.7523
137.278
188.792
254.259
333.706
425.163
525.543
628.592
727.468
807.036
869.395
924.45
977.607
1031.27
1084.98
1136.62
1182.68
1219.77
1245.45
1258.71
1259.86
1250.15
1231.33
1205.19
1173.42
1137.4
1098.24
1056.81
1013.69
969.211
924.146
875.121
9.24648
9.71225
10.2298
10.7966
11.4352
12.2241
13.1902
14.4963
16.2332
18.5745
21.7385
26.1561
32.3233
41.3925
54.8715
74.8065
103.601
143.728
197.019
264.326
345.523
438.453
539.814
643.137
741.304
819.934
881.796
936.543
989.602
1043.5
1097.96
1151.12
1199.54
1239.69
1268.88
1285.74
1290.28
1283.54
1267.2
1243.16
1213.21
1178.92
1141.56
1102.12
1061.34
1019.76
978.437
934.828
9.34102
9.79799
10.3156
10.8881
11.537
12.3413
13.3314
14.6747
16.4693
18.9031
22.212
26.8595
33.3813
42.9811
57.1989
78.1216
108.144
149.723
204.604
273.536
356.249
450.42
552.55
655.979
753.344
831.037
892.451
946.949
999.948
1054.06
1109.23
1163.81
1214.48
1257.66
1290.41
1311.03
1319.19
1315.66
1301.99
1280.02
1251.53
1218.16
1181.23
1141.89
1101.01
1059.47
1018.61
975.256
9.43858
9.88645
10.4033
10.9808
11.6397
12.4593
13.4731
14.8532
16.7043
19.2283
22.6774
27.5456
34.405
44.5047
59.4108
81.2434
112.383
155.263
211.548
281.889
365.887
461.07
563.761
667.135
763.616
840.382
901.396
955.699
1008.67
1063.01
1118.81
1174.69
1227.48
1273.57
1309.84
1334.27
1346.14
1345.93
1334.93
1314.85
1287.4
1254.1
1216.17
1174.56
1129.98
1082.88
1034.2
979.209
9.53524
9.97407
10.4899
11.0728
11.7417