/*--------------------------------*- C++ -*----------------------------------*\
  =========                 |
  \\      /  F ield         | OpenFOAM: The Open Source CFD Toolbox
   \\    /   O peration     | Website:  https://openfoam.org
    \\  /    A nd           | Version:  10
     \\/     M anipulation  |
\*---------------------------------------------------------------------------*/
FoamFile
{
    format      ascii;
    class       surfaceScalarField;
    location    "5";
    object      phi;
}
// * * * * * * * * * * * * * * * * * * * * * * * * * * * * * * * * * * * * * //

dimensions      [0 3 -1 0 0 0 0];

internalField   nonuniform List<scalar> 
75600
(
2.16737
-1217.75
1218.2
1.79944
-1008.2
1008.57
1.49526
-834.733
835.037
1.24344
-691.14
691.392
1.03504
-572.287
572.496
0.862709
-473.917
474.089
0.720083
-392.51
392.653
0.602007
-325.151
325.269
0.504224
-269.432
269.53
0.423334
-223.354
223.435
0.356326
-185.271
185.338
0.30072
-153.818
153.874
0.254449
-127.869
127.916
0.216022
-106.497
106.536
0.183667
-88.941
88.9734
0.156591
-74.5578
74.5849
0.133824
-62.8394
62.8622
0.11459
-53.3816
53.4008
0.0983961
-45.8298
45.846
0.0848405
-39.9159
39.9295
0.0729447
-35.4347
35.4466
0.0610968
-32.2315
32.2433
0.0512219
-30.1634
30.1733
0.0416819
-29.2552
29.2645
0.0328275
-29.2561
29.2652
0.0260198
-23.4825
23.4893
0.0202426
-18.8905
18.8963
0.0158879
-15.1617
15.166
0.0122055
-12.1965
12.2002
0.00897791
-9.78829
9.79153
0.00805751
-7.77766
7.77858
0.0051602
-6.26205
6.26495
0.00368299
-5.01295
5.01443
0.00221975
-4.02437
4.02584
0.0013917
-3.22507
3.22589
0.00185832
-2.58803
2.58757
0.00206483
-2.079
2.07879
0.00223895
-1.66126
1.66109
0.00267268
-1.33806
1.33763
0.0014794
-1.06445
1.06564
0.00242223
-0.879516
0.878575
0.00254162
-0.715883
0.715764
0.00265908
-0.592002
0.591885
0.00629575
-0.501177
0.497541
0.00383344
-0.412319
0.414782
0.00122491
-0.363105
0.365714
0.00142157
-0.328399
0.328203
-0.327378
0.326774
0.00202711
2.19487
-1217.3
1.82275
-1007.83
1.51463
-834.425
1.2595
-690.885
1.04846
-572.076
0.873764
-473.742
0.72913
-392.365
0.609366
-325.032
0.510164
-269.333
0.428122
-223.272
0.360168
-185.203
0.303775
-153.762
0.256846
-127.822
0.217791
-106.458
0.185276
-88.9085
0.158811
-74.5313
0.136068
-62.8167
0.116384
-53.3619
0.100496
-45.8139
0.0860722
-39.9015
0.0740267
-35.4227
0.0627772
-32.2203
0.0542972
-30.1549
0.0450717
-29.2461
0.036929
-29.2479
0.0294696
-23.475
0.0228411
-18.8839
0.0187137
-15.1575
0.0151465
-12.1929
0.0118809
-9.78503
0.0105115
-7.77628
0.00844681
-6.25999
0.0073296
-5.01183
0.00603659
-4.02308
0.00585919
-3.22489
0.00580415
-2.58798
0.00758482
-2.08078
0.00736702
-1.66105
0.00685487
-1.33755
0.00239716
-1.05999
0.00810508
-0.885224
0.00815152
-0.715931
0.0082007
-0.592051
0.00551762
-0.498494
0.00672454
-0.413527
0.00112715
-0.357508
-0.000148319
-0.327124
-0.329518
0.00199132
2.22433
-1216.85
1.84701
-1007.45
1.5345
-834.112
1.27576
-690.626
1.06149
-571.862
0.884029
-473.565
0.737048
-392.218
0.615296
-324.91
0.514429
-269.232
0.430979
-223.189
0.36186
-185.134
0.304457
-153.704
0.256775
-127.775
0.216969
-106.419
0.183989
-88.8755
0.156557
-74.5039
0.133558
-62.7937
0.114679
-53.343
0.0987948
-45.798
0.084407
-39.8871
0.0718795
-35.4102
0.0609119
-32.2093
0.0514638
-30.1454
0.0417967
-29.2365
0.0338202
-29.2398
0.0285154
-23.4698
0.0236147
-18.8789
0.0197646
-15.1537
0.0163351
-12.1895
0.0127745
-9.78146
0.0129936
-7.7765
0.0102271
-6.25722
0.00975205
-5.01136
0.00888192
-4.02221
0.0027779
-3.21878
0.00808178
-2.59329
0.013208
-2.0859
0.0113179
-1.65916
0.0104038
-1.33663
0.0121526
-1.06174
0.0102063
-0.883277
0.00167915
-0.707403
0.0132669
-0.603638
0.00592627
-0.491153
0.0141677
-0.421768
0.0125163
-0.355856
0.00402757
-0.318635
-0.33826
0.0127694
2.25568
-1216.39
1.87297
-1007.07
1.5558
-833.795
1.29302
-690.364
1.0753
-571.644
0.894908
-473.384
0.745443
-392.069
0.621604
-324.786
0.518981
-269.129
0.434142
-223.104
0.364173
-185.064
0.305845
-153.646
0.256931
-127.726
0.216824
-106.379
0.183305
-88.842
0.155753
-74.4763
0.132465
-62.7704
0.11285
-53.3234
0.097167
-45.7823
0.0827802
-39.8727
0.0711501
-35.3985
0.060844
-32.199
0.0530568
-30.1376
0.0440522
-29.2276
0.0375424
-29.2332
0.0326813
-23.4649
0.0261551
-18.8724
0.0233486
-15.1509
0.0201197
-12.1863
0.01474
-9.77608
0.0128598
-7.77462
0.0111102
-6.25547
0.0109934
-5.01124
0.0128079
-4.02403
0.00191131
-3.20789
0.010227
-2.6016
0.0156793
-2.09136
0.0149714
-1.65845
0.00921298
-1.33088
0.00925855
-1.06179
0.000739546
-0.874758
0.00188652
-0.708552
0.0158184
-0.61757
0.0084145
-0.483749
0.0139035
-0.427256
0.00619466
-0.348147
0.0112645
-0.323705
-0.340274
0.0132777
2.28926
-1215.92
1.90072
-1006.68
1.57855
-833.473
1.31156
-690.097
1.09026
-571.423
0.906843
-473.201
0.754833
-391.917
0.628855
-324.66
0.524447
-269.025
0.437913
-223.017
0.366173
-184.992
0.307358
-153.587
0.258338
-127.677
0.217093
-106.337
0.183033
-88.8079
0.154635
-74.4479
0.131538
-62.7473
0.112409
-53.3043
0.0955682
-45.7655
0.080466
-39.8576
0.0683708
-35.3864
0.0574908
-32.1881
0.0485511
-30.1287
0.040219
-29.2193
0.0330136
-29.226
0.0274806
-23.4594
0.0227761
-18.8677
0.0187147
-15.1468
0.0156316
-12.1832
0.0131633
-9.77361
0.0130334
-7.77449
0.0105255
-6.25296
0.0108942
-5.01161
0.0110044
-4.02414
0.0100746
-3.20696
0.011437
-2.60296
0.0138537
-2.09377
0.0153954
-1.65999
0.012548
-1.32803
0.0147462
-1.06398
0.0146387
-0.874649
0.0166792
-0.710592
0.0115073
-0.612399
0.0150194
-0.487261
0.00265214
-0.414889
0.0110292
-0.356523
0.00749702
-0.320173
-0.338391
0.00561363
2.32506
-1215.44
1.93049
-1006.28
1.60323
-833.146
1.33187
-689.825
1.10688
-571.198
0.920361
-473.014
0.765749
-391.762
0.637594
-324.532
0.531368
-268.918
0.443826
-222.93
0.370868
-184.919
0.309743
-153.526
0.259843
-127.627
0.218721
-106.296
0.184822
-88.7741
0.157088
-74.4202
0.1319
-62.7222
0.110668
-53.2831
0.0947903
-45.7496
0.0807664
-39.8436
0.0689171
-35.3746
0.058251
-32.1775
0.0498728
-30.1203
0.0411523
-29.2106
0.0344141
-29.2192
0.0294003
-23.4544
0.0237616
-18.862
0.0203643
-15.1434
0.0172114
-12.18
0.015247
-9.77164
0.0170384
-7.77628
0.0109507
-6.24687
0.0129224
-5.01358
0.011867
-4.02308
0.0130625
-3.20815
0.0121023
-2.60201
0.0119668
-2.09364
0.0129789
-1.661
0.0114866
-1.32654
0.00592859
-1.05843
-0.00423963
-0.864481
-0.00211225
-0.71272
-0.0140934
-0.600418
-0.000858638
-0.500496
0.00601689
-0.421763
0.0139703
-0.364477
0.0158241
-0.322027
-0.328538
0.00597032
2.36338
-1214.96
1.96239
-1005.88
1.62968
-832.813
1.35371
-689.549
1.12483
-570.969
0.935052
-472.825
0.77771
-391.605
0.647276
-324.401
0.539151
-268.81
0.449538
-222.84
0.375201
-184.845
0.314323
-153.465
0.264282
-127.577
0.222362
-106.254
0.186018
-88.7377
0.155671
-74.3899
0.131852
-62.6983
0.111605
-53.2628
0.0949204
-45.7329
0.080965
-39.8296
0.0690946
-35.3627
0.058397
-32.1668
0.0500809
-30.1119
0.041399
-29.2019
0.0348054
-29.2126
0.02993
-23.4495
0.0242228
-18.8563
0.0208419
-15.14
0.0176289
-12.1768
0.0134854
-9.7675
0.0174663
-7.78026
0.012967
-6.24237
0.0148406
-5.01545
0.0157919
-4.02402
0.0166589
-3.20901
0.0120503
-2.5974
0.00526809
-2.08685
0.00486117
-1.66059
0.0114703
-1.33315
0.014766
-1.06172
0.0128135
-0.862528
0.0124527
-0.712359
0.0113369
-0.599302
0.0132867
-0.502446
0.0229287
-0.431406
0.010119
-0.351667
0.0225225
-0.334431
-0.315016
0.00900173
2.40432
-1214.47
1.99648
-1005.48
1.65797
-832.474
1.37711
-689.269
1.14414
-570.736
0.950928
-472.631
0.790717
-391.445
0.657892
-324.269
0.547777
-268.7
0.456463
-222.749
0.380993
-184.769
0.318328
-153.403
0.266037
-127.525
0.222918
-106.211
0.187176
-88.702
0.158041
-74.3607
0.134903
-62.6752
0.113651
-53.2416
0.0956439
-45.7149
0.0817325
-39.8157
0.0697983
-35.3508
0.059051
-32.1561
0.0508089
-30.1037
0.0421688
-29.1933
0.0357353
-29.2061
0.0309853
-23.4448
0.0251781
-18.8504
0.0218216
-15.1366
0.0185991
-12.1736
0.016312
-9.7652
0.0180645
-7.78201
0.0136484
-6.23795
0.0111151
-5.01291
0.0165765
-4.02948
0.0178208
-3.21025
0.0130331
-2.59261
0.0130737
-2.0869
0.0133215
-1.66084
0.014756
-1.33458
0.00473541
-1.0517
-0.0106521
-0.847141
0.000833627
-0.723845
0.00240246
-0.600871
0.00586477
-0.505908
0.00835593
-0.433897
0.0177532
-0.361064
0.00544379
-0.32212
-0.316873
0.00730129
2.44797
-1213.97
2.03284
-1005.06
1.68818
-832.13
1.40217
-688.982
1.16488
-570.499
0.968057
-472.434
0.80484
-391.281
0.669509
-324.133
0.557312
-268.588
0.464483
-222.656
0.387613
-184.692
0.323668
-153.339
0.270524
-127.471
0.22659
-106.167
0.190368
-88.6657
0.160318
-74.3307
0.134825
-62.6497
0.114139
-53.2209
0.097833
-45.6986
0.0838329
-39.8017
0.0736384
-35.3406
0.0639478
-32.1464
0.0570258
-30.0968
0.0480793
-29.1844
0.0432115
-29.2012
0.0399646
-23.4415
0.0330035
-18.8435
0.0314701
-15.1351
0.0284618
-12.1706
0.0176288
-9.75437
0.0218971
-7.78628
0.0297316
-6.24579
0.0167439
-4.99993
0.0109397
-4.02368
0.0203517
-3.21967
0.0130766
-2.58534
0.00981715
-2.08363
0.00433632
-1.65536
0.012038
-1.34228
0.012535
-1.0522
0.0058036
-0.840409
0.0124329
-0.730474
0.00907035
-0.597509
0.00882067
-0.505659
0.00697777
-0.432054
0.0166067
-0.370693
0.0116086
-0.317122
-0.312873
0.00760965
2.49441
-1213.46
2.07155
-1004.64
1.72041
-831.779
1.42896
-688.691
1.18714
-570.257
0.986536
-472.234
0.820172
-391.115
0.682229
-323.995
0.56786
-268.474
0.473236
-222.562
0.395308
-184.615
0.330361
-153.274
0.275979
-127.417
0.2314
-106.123
0.194209
-88.6286
0.163493
-74.3
0.137549
-62.6237
0.115623
-53.199
0.0985914
-45.6816
0.0838331
-39.7869
0.0710853
-35.3279
0.0601541
-32.1354
0.0514697
-30.0881
0.0434049
-29.1764
0.0367617
-29.1945
0.0314207
-23.4362
0.026465
-18.8385
0.0222667
-15.1309
0.0192886
-12.1676
0.0174705
-9.75255
0.015517
-7.78432
0.0175979
-6.24787
0.0207461
-5.00307
0.0205742
-4.0235
0.0121119
-3.2112
0.0135604
-2.58679
0.00726692
-2.07734
0.00513184
-1.65323
0.0101408
-1.34729
0.00650774
-1.04856
0.00861706
-0.842517
0.0116006
-0.733458
0.0102656
-0.596174
0.00704154
-0.502435
0.00321561
-0.428228
0.00366138
-0.371139
0.0237854
-0.337245
-0.298532
0.00944372
2.54377
-1212.94
2.11275
-1004.21
1.75476
-831.42
1.45759
-688.394
1.21101
-570.01
1.00645
-472.029
0.836809
-390.945
0.696143
-323.855
0.57952
-268.357
0.483318
-222.465
0.403219
-184.534
0.336566
-153.207
0.281913
-127.362
0.236469
-106.077
0.199078
-88.5912
0.168828
-74.2697
0.142699
-62.5976
0.119127
-53.1754
0.101348
-45.6638
0.0860704
-39.7717
0.0723879
-35.3142
0.0613818
-32.1244
0.0523154
-30.079
0.0439557
-29.168
0.0368242
-29.1874
0.0311612
-23.4305
0.0260114
-18.8334
0.0216506
-15.1265
0.0181953
-12.1642
0.0191481
-9.7535
0.017581
-7.78276
0.01878
-6.24907
0.0181252
-5.00242
0.027786
-4.03316
0.0154835
-3.1989
0.0145718
-2.58588
0.011841
-2.07461
0.0111366
-1.65252
0.00418184
-1.34034
0.0117271
-1.05611
0.0214127
-0.852202
0.0116081
-0.723653
0.0128188
-0.597385
0.00592544
-0.495542
-0.00337875
-0.418924
-0.00249084
-0.372026
-0.000261129
-0.339476
-0.303078
0.00428506
2.59618
-1212.41
2.15652
-1003.77
1.79132
-831.055
1.48815
-688.091
1.23659
-569.759
1.02791
-471.821
0.854851
-390.772
0.711361
-323.711
0.592401
-268.238
0.493801
-222.367
0.412041
-184.453
0.344818
-153.14
0.289473
-127.307
0.243446
-106.031
0.203954
-88.5517
0.170942
-74.2367
0.145056
-62.5717
0.122944
-53.1533
0.1047
-45.6455
0.0907496
-39.7577
0.0783791
-35.3018
0.0667261
-32.1128
0.0584574
-30.0707
0.0497581
-29.1593
0.04352
-29.1811
0.0390371
-23.426
0.0326983
-18.827
0.0291911
-15.123
0.0253312
-12.1603
0.0226335
-9.75079
0.0232021
-7.78333
0.0199623
-6.24582
0.0230384
-5.00549
0.0156158
-4.02573
0.0161879
-3.19947
0.0201344
-2.58983
0.0222013
-2.07668
0.017632
-1.64795
0.00561272
-1.32832
0.0131633
-1.06366
0.0253152
-0.864354
0.00968343
-0.708022
0.0130874
-0.600789
0.00146258
-0.483917
-0.00955805
-0.407903
-0.00644091
-0.375143
-0.00780205
-0.338114
-0.316001
0.0051216
2.65178
-1211.87
2.20299
-1003.32
1.8302
-830.682
1.52075
-687.781
1.26398
-569.502
1.05101
-471.608
0.874409
-390.596
0.727997
-323.565
0.606624
-268.117
0.506002
-222.266
0.422607
-184.369
0.353589
-153.071
0.296399
-127.25
0.248889
-105.984
0.209333
-88.5121
0.17653
-74.2039
0.151607
-62.5468
0.129234
-53.1309
0.110694
-45.627
0.0958813
-39.7429
0.0815493
-35.2875
0.0707151
-32.102
0.0636383
-30.0636
0.055276
-29.151
0.0496848
-29.1755
0.0453476
-23.4217
0.036199
-18.8178
0.0317658
-15.1186
0.0310661
-12.1596
0.0318664
-9.75159
0.0313065
-7.78277
0.0214404
-6.23596
0.0286789
-5.01273
0.0167312
-4.01378
0.0106853
-3.19342
0.0169552
-2.5961
0.0169366
-2.07666
0.0140342
-1.64505
0.0140323
-1.32831
0.0120637
-1.06169
0.0172272
-0.869517
0.0137183
-0.704513
0.0125786
-0.599649
0.00954014
-0.480878
0.00615047
-0.404512
0.00265674
-0.37165
0.000740246
-0.336197
-0.319289
0.00402868
2.71069
-1211.32
2.25229
-1002.86
1.87153
-830.302
1.55549
-687.465
1.29331
-569.24
1.07588
-471.39
0.895611
-390.416
0.74618
-323.415
0.622324
-267.993
0.51966
-222.163
0.434571
-184.284
0.364049
-153
0.305593
-127.191
0.257136
-105.935
0.216887
-88.4719
0.183496
-74.1705
0.155836
-62.5191
0.132849
-53.1079
0.113565
-45.6077
0.097548
-39.7269
0.0857865
-35.2757
0.0769753
-32.0932
0.0668613
-30.0535
0.0552467
-29.1394
0.0478925
-29.1682
0.0438522
-23.4177
0.0474783
-18.8215
0.0527969
-15.1239
0.0350675
-12.1419
0.0230168
-9.73953
0.0252172
-7.78497
0.0233908
-6.23413
0.0280559
-5.0174
0.020272
-4.00599
0.0176453
-3.1908
0.0123391
-2.59079
0.0208063
-2.08513
0.0128084
-1.63705
-0.000284396
-1.31522
0.0101155
-1.07209
0.00795868
-0.86736
0.015706
-0.71226
0.00470259
-0.588645
0.00953298
-0.485708
0.0184537
-0.413433
0.0121971
-0.365393
0.00884336
-0.332843
-0.317821
0.0073753
2.77307
-1210.76
2.30455
-1002.39
1.91543
-829.913
1.59252
-687.142
1.3247
-568.972
1.10265
-471.168
0.918595
-390.231
0.766065
-323.263
0.639663
-267.866
0.534903
-222.059
0.448088
-184.197
0.376133
-152.928
0.31649
-127.132
0.267045
-105.886
0.225961
-88.4308
0.191853
-74.1364
0.163517
-62.4908
0.140005
-53.0844
0.120153
-45.5879
0.103613
-39.7103
0.0897042
-35.2618
0.0776653
-32.0811
0.0673499
-30.0432
0.0573009
-29.1293
0.0486133
-29.1595
0.0415846
-23.4106
0.0357826
-18.8157
0.0312151
-15.1193
0.0265693
-12.1372
0.0224906
-9.73545
0.0220684
-7.78455
0.0231755
-6.23524
0.0280332
-5.02225
0.0296541
-4.00761
0.0374892
-3.19863
0.0161616
-2.56946
0.0201923
-2.08916
0.0076174
-1.62448
0.00609753
-1.3137
0.0136864
-1.07968
0.0165163
-0.87019
0.0149491
-0.710693
0.0103526
-0.584049
0.0114351
-0.486789
0.0126981
-0.414696
0.0108613
-0.363555
0.00911653
-0.331098
-0.31625
0.00754567
2.83906
-1210.18
2.35988
-1001.91
1.962
-829.515
1.63192
-686.812
1.35824
-568.698
1.13142
-470.941
0.943478
-390.044
0.787766
-323.107
0.65876
-267.737
0.551864
-221.952
0.463289
-184.109
0.389881
-152.855
0.329028
-127.071
0.278565
-105.835
0.236618
-88.3889
0.201769
-74.1016
0.172801
-62.4618
0.148693
-53.0603
0.128306
-45.5675
0.11125
-39.6933
0.0966151
-35.2472
0.0837272
-32.0682
0.0728782
-30.0324
0.0620057
-29.1184
0.0523371
-29.1498
0.044166
-23.4025
0.0368082
-18.8083
0.0311611
-15.1137
0.0272768
-12.1333
0.0237985
-9.73197
0.0227722
-7.78352
0.023483
-6.23595
0.0190454
-5.01782
0.0187972
-4.00736
0.025913
-3.20575
0.0208976
-2.56445
0.0140622
-2.08232
0.0131326
-1.62355
0.0212604
-1.32183
0.0169826
-1.0754
0.0164252
-0.869632
0.0139806
-0.708248
0.0124523
-0.58252
0.0113061
-0.485643
0.0101438
-0.413533
0.00921145
-0.362622
0.00809671
-0.329983
-0.314972
0.00681914
2.90881
-1209.59
2.41844
-1001.42
2.01139
-829.108
1.67384
-686.475
1.3941
-568.418
1.16236
-470.71
0.970419
-389.852
0.811459
-322.948
0.679802
-267.606
0.570737
-221.843
0.48038
-184.018
0.405496
-152.78
0.343413
-127.009
0.291914
-105.784
0.249081
-88.346
0.213457
-74.0659
0.183794
-62.4321
0.159052
-53.0355
0.138049
-45.5465
0.12037
-39.6756
0.10515
-35.232
0.091635
-32.0547
0.0799136
-30.0206
0.0680333
-29.1066
0.0571351
-29.1389
0.0480328
-23.3934
0.0401816
-18.8004
0.0340755
-15.1076
0.0292587
-12.1285
0.0251796
-9.72789
0.0240848
-7.78243
0.0241845
-6.23605
0.0191158
-5.01275
0.0180024
-4.00625
0.0183198
-3.20607
0.0203231
-2.56645
0.00689996
-2.0689
0.0203965
-1.63704
0.0217572
-1.32319
0.0175318
-1.07117
0.0153924
-0.867493
0.0137792
-0.706634
0.0121257
-0.580866
0.0109128
-0.48443
0.009871
-0.41249
0.00872184
-0.361473
0.00762267
-0.328883
-0.313836
0.00648749
2.98251
-1208.99
2.48038
-1000.92
2.06374
-828.691
1.71843
-686.129
1.43242
-568.133
1.19562
-470.473
0.999588
-389.656
0.837318
-322.786
0.702975
-267.471
0.591718
-221.731
0.499561
-183.926
0.423189
-152.704
0.359863
-126.946
0.30731
-105.731
0.263568
-88.3023
0.227142
-74.0295
0.196752
-62.4018
0.171321
-53.0101
0.149642
-45.5248
0.13127
-39.6572
0.115279
-35.216
0.100885
-32.0403
0.0881877
-30.0079
0.0750882
-29.0935
0.0626932
-29.1265
0.0522888
-23.383
0.0433234
-18.7915
0.0363469
-15.1006
0.0310764
-12.1232
0.0267197
-9.72352
0.0252466
-7.78095
0.024779
-6.23558
0.0204654
-5.00843
0.0192041
-4.00499
0.0181251
-3.20499
0.0185998
-2.56693
0.0110787
-2.06138
0.0182184
-1.64418
0.0188024
-1.32377
0.0167154
-1.06909
0.014894
-0.865671
0.0131913
-0.704931
0.011785
-0.579459
0.0104845
-0.48313
0.00927836
-0.411283
0.00817775
-0.360374
0.00707441
-0.32778
-0.312628
0.00586617
3.06031
-1208.37
2.54584
-1000.41
2.1192
-828.264
1.76583
-685.776
1.47334
-567.84
1.23135
-470.231
1.03116
-389.455
0.865532
-322.62
0.728476
-267.334
0.615014
-221.618
0.521051
-183.832
0.443186
-152.626
0.378609
-126.881
0.32499
-105.678
0.28032
-88.2576
0.243061
-73.9922
0.211899
-62.3706
0.185726
-52.9839
0.163296
-45.5024
0.144132
-39.6381
0.127277
-35.1991
0.111892
-32.0249
0.0980052
-29.9941
0.0834452
-29.0789
0.0692434
-29.1123
0.0573353
-23.3711
0.047212
-18.7814
0.0393022
-15.0927
0.0332546
-12.1172
0.0284048
-9.71868
0.0265289
-7.77908
0.0254543
-6.2345
0.0212702
-5.00425
0.01962
-4.00333
0.0187408
-3.20411
0.0179081
-2.56609
0.0142964
-2.05777
0.0166059
-1.64649
0.016821
-1.32398
0.0154745
-1.06774
0.0139408
-0.864136
0.0125305
-0.703521
0.0112431
-0.57817
0.0101213
-0.482009
0.00912183
-0.410282
0.00817333
-0.359428
0.00724307
-0.326851
-0.311616
0.00623027
3.14241
-1207.73
2.615
-999.878
2.17792
-827.827
1.81619
-685.414
1.51705
-567.541
1.26975
-469.984
1.06531
-389.251
0.8963
-322.451
0.756519
-267.195
0.64085
-221.502
0.545084
-183.737
0.465729
-152.546
0.3999
-126.815
0.345207
-105.623
0.29959
-88.212
0.26147
-73.9541
0.229495
-62.3386
0.202519
-52.957
0.179259
-45.4791
0.159201
-39.618
0.14134
-35.1812
0.124783
-32.0084
0.109499
-29.9788
0.0932092
-29.0626
0.0768576
-29.0959
0.0631471
-23.3573
0.0515905
-18.7698
0.0425394
-15.0836
0.0356515
-12.1103
0.0302532
-9.71327
0.0278478
-7.77668
0.0261528
-6.23281
0.0221777
-5.00028
0.0202257
-4.00138
0.0188503
-3.20273
0.0176483
-2.56489
0.0153747
-2.05549
0.0159183
-1.64703
0.0154696
-1.32354
0.0143104
-1.06658
0.0129895
-0.862815
0.0117304
-0.702262
0.0106451
-0.577084
0.00974322
-0.481107
0.00903949
-0.409577
0.00853992
-0.358928
0.00824854
-0.326558
-0.311528
0.00816149
3.22899
-1207.08
2.68803
-999.337
2.24007
-827.379
1.86969
-685.044
1.5637
-567.235
1.31098
-469.731
1.10226
-389.042
0.929834
-322.279
0.787329
-267.052
0.669465
-221.384
0.571912
-183.639
0.491078
-152.466
0.424003
-126.748
0.368233
-105.567
0.321654
-88.1654
0.282643
-73.9151
0.24981
-62.3058
0.221966
-52.9291
0.197788
-45.4549
0.17672
-39.5969
0.157707
-35.1622
0.139795
-31.9905
0.122869
-29.9618
0.104549
-29.0443
0.0856629
-29.0771
0.0698419
-23.3415
0.0566211
-18.7566
0.0462441
-15.0733
0.0383439
-12.1024
0.0322713
-9.7072
0.0292385
-7.77364
0.0268995
-6.23047
0.022963
-4.99634
0.020685
-3.9991
0.01906
-3.20111
0.0175371
-2.56337
0.0158491
-2.05381
0.0152913
-1.64648
0.0144429
-1.32269
0.0132459
-1.06538
0.011955
-0.861524
0.0107046
-0.701011
0.00953441
-0.575914
0.00844948
-0.480022
0.00742497
-0.408552
0.00641376
-0.357918
0.00536807
-0.325513
-0.31031
0.0041494
3.32025
-1206.41
2.7651
-998.782
2.30582
-826.92
1.9265
-684.665
1.61348
-566.922
1.35525
-469.473
1.1422
-388.829
0.966362
-322.103
0.821148
-266.907
0.701113
-221.264
0.601796
-183.54
0.519506
-152.383
0.451198
-126.68
0.394353
-105.51
0.346801
-88.1179
0.30687
-73.8752
0.273131
-62.2721
0.24435
-52.9004
0.219158
-45.4297
0.196953
-39.5747
0.176624
-35.1419
0.157144
-31.971
0.138311
-29.943
0.117626
-29.0236
0.0957783
-29.0552
0.0774979
-23.3232
0.0623306
-18.7414
0.0504077
-15.0613
0.0413396
-12.0933
0.0344713
-9.70033
0.0306996
-7.76987
0.0276893
-6.22746
0.0237028
-4.99235
0.0211052
-3.99651
0.0191495
-3.19915
0.0174336
-2.56165
0.0158241
-2.0522
0.0147547
-1.64541
0.0135996
-1.32153
0.0123377
-1.06412
0.0110652
-0.860251
0.00984367
-0.699789
0.00869991
-0.574769
0.00763244
-0.478955
0.00663438
-0.407553
0.00568521
-0.356969
0.00478487
-0.324614
-0.309377
0.00385178
3.41641
-1205.72
2.84641
-998.212
2.37536
-826.449
1.98681
-684.276
1.66659
-566.602
1.40277
-469.209
1.18536
-388.612
1.00612
-321.924
0.858224
-266.759
0.736057
-221.142
0.635016
-183.439
0.5513
-152.3
0.481781
-126.61
0.423868
-105.452
0.375334
-88.0693
0.334456
-73.8343
0.29976
-62.2373
0.269967
-52.8705
0.243656
-45.4034
0.220174
-39.5512
0.198347
-35.1201
0.177069
-31.9497
0.156032
-29.922
0.132612
-29.0002
0.107332
-29.0299
0.0862104
-23.3021
0.0687935
-18.724
0.0550877
-15.0476
0.0446695
-12.0829
0.0368642
-9.69253
0.0322434
-7.76525
0.0285266
-6.22374
0.0243762
-4.9882
0.021448
-3.99358
0.0191998
-3.1969
0.0172731
-2.55973
0.0155825
-2.05051
0.0141936
-1.64402
0.0128721
-1.32021
0.0115973
-1.06284
0.0104143
-0.859067
0.00934184
-0.698717
0.00836615
-0.573793
0.00745497
-0.478044
0.00656253
-0.40666
0.00562924
-0.356037
0.00457943
-0.323564
-0.308062
0.00326512
3.51768
-1205.02
2.93216
-997.626
2.44887
-825.966
2.0508
-683.878
1.72322
-566.274
1.45373
-468.939
1.23196
-388.39
1.04935
-321.741
0.89882
-266.609
0.774573
-221.018
0.671858
-183.336
0.58676
-152.215
0.516059
-126.54
0.457091
-105.393
0.407569
-88.0198
0.365715
-73.7925
0.330011
-62.2017
0.299123
-52.8397
0.271578
-45.3759
0.246667
-39.5263
0.223142
-35.0966
0.199812
-31.9264
0.176244
-29.8984
0.149682
-28.9736
0.120454
-29.0007
0.0960733
-23.2777
0.0760719
-18.704
0.0603226
-15.0319
0.0483585
-12.0709
0.0394628
-9.68362
0.0338791
-7.75967
0.0294117
-6.21927
0.0249965
-4.98379
0.0217236
-3.9903
0.0191726
-3.19435
0.0170363
-2.55759
0.015194
-2.04866
0.0136073
-1.64243
0.0121765
-1.31878
0.0109193
-1.06159
0.00988222
-0.85803
0.00910845
-0.697943
0.00861673
-0.573301
0.00841516
-0.477842
0.0085022
-0.406747
0.00889012
-0.356424
0.00963086
-0.324304
-0.309205
0.0107734
3.62431
-1204.29
3.02255
-997.024
2.52655
-825.47
2.11867
-683.47
1.78359
-565.939
1.50838
-468.664
1.28225
-388.164
1.0963
-321.555
0.943204
-266.455
0.816944
-220.892
0.712619
-183.232
0.626191
-152.128
0.554346
-126.468
0.494342
-105.333
0.443828
-87.9693
0.400971
-73.7496
0.364203
-62.1649
0.332134
-52.8076
0.303231
-45.347
0.276723
-39.4998
0.251282
-35.0711
0.225619
-31.9007
0.199166
-29.872
0.169018
-28.9435
0.135279
-28.967
0.107184
-23.2496
0.0842333
-18.681
0.0661578
-15.0138
0.0524348
-12.0572
0.0422813
-9.67348
0.0356187
-7.75301
0.0303471
-6.214
0.0255685
-4.97901
0.0219285
-3.98666
0.0190761
-3.1915
0.0167229
-2.55524
0.0147204
-2.04666
0.0129776
-1.64069
0.0114263
-1.31723
0.0100537
-1.06021
0.00886282
-0.856839
0.00784839
-0.696928
0.00699157
-0.572445
0.00626387
-0.477114
0.00563078
-0.406114
0.00505847
-0.355851
0.00454926
-0.323795
-0.308704
0.00404846
3.73653
-1203.54
3.11781
-996.406
2.60861
-824.961
2.19063
-683.052
1.8479
-565.596
1.56692
-468.383
1.33646
-387.933
1.14724
-321.366
0.991648
-266.3
0.863458
-220.764
0.757598
-183.126
0.669903
-152.04
0.59696
-126.395
0.535945
-105.272
0.484439
-87.9178
0.440551
-73.7057
0.40266
-62.127
0.369315
-52.7743
0.338921
-45.3166
0.310634
-39.4715
0.283039
-35.0435
0.254741
-31.8724
0.225014
-29.8422
0.190797
-28.9093
0.151938
-28.9281
0.119638
-23.2173
0.0933447
-18.6547
0.072638
-14.9931
0.0569261
-12.0415
0.045335
-9.66188
0.0374736
-7.74515
0.0313345
-6.20785
0.026099
-4.97377
0.0220635
-3.98263
0.0189029
-3.18834
0.0163405
-2.55267
0.0142016
-2.04452
0.0123638
-1.63885
0.010736
-1.3156
0.00926261
-1.05874
0.00790444
-0.855481
0.0066294
-0.695653
0.0054061
-0.571222
0.00420424
-0.475912
0.00298746
-0.404898
0.00172783
-0.354591
0.000407284
-0.322474
-0.307341
-0.000955751
3.85462
-1202.77
3.21818
-995.769
2.6953
-824.438
2.26693
-682.624
1.91642
-565.246
1.62965
-468.096
1.39489
-387.699
1.20248
-321.174
1.04449
-266.142
0.914468
-220.634
0.807163
-183.018
0.718277
-151.952
0.64429
-126.321
0.582294
-105.21
0.5298
-87.8653
0.484853
-73.6607
0.445777
-62.0879
0.411057
-52.7395
0.379027
-45.2845
0.348766
-39.4413
0.318761
-35.0135
0.2875
-31.8412
0.254082
-29.8088
0.215276
-28.8705
0.170644
-28.8835
0.133613
-23.1803
0.103555
-18.6247
0.079891
-14.9694
0.0619447
-12.0235
0.048725
-9.64867
0.0395417
-7.73596
0.032463
-6.20078
0.0266813
-4.96799
0.0222157
-3.97816
0.0187382
-3.18486
0.015978
-2.54991
0.0137539
-2.0423
0.0119282
-1.63702
0.0103911
-1.31406
0.00906686
-1.05742
0.00791507
-0.854329
0.00692686
-0.694664
0.00610731
-0.570402
0.00546774
-0.475272
0.00501932
-0.40445
0.00499107
-0.354563
0.00549774
-0.322981
-0.308825
0.00698174
3.97883
-1201.98
3.32389
-995.114
2.7868
-823.901
2.34775
-682.185
1.98932
-564.887
1.69675
-467.804
1.45774
-387.46
1.26222
-320.978
1.10194
-265.982
0.970194
-220.502
0.861543
-182.91
0.771547
-151.862
0.696576
-126.246
0.633633
-105.147
0.580155
-87.8118
0.53412
-73.6147
0.493795
-62.0476
0.457592
-52.7033
0.423771
-45.2507
0.391325
-39.4088
0.358634
-34.9808
0.324057
-31.8066
0.286499
-29.7713
0.242548
-28.8265
0.191444
-28.8324
0.149122
-23.138
0.114849
-18.5904
0.0878816
-14.9425
0.0674386
-12.0031
0.0523879
-9.63362
0.0417536
-7.72533
0.0336537
-6.19267
0.0272387
-4.96157
0.0223009
-3.97322
0.0184865
-3.18105
0.0155286
-2.54696
0.0132563
-2.04002
0.0115384
-1.6353
0.0102419
-1.31276
0.00921793
-1.05639
0.00831755
-0.853428
0.00741488
-0.693761
0.00642538
-0.569412
0.00530004
-0.474147
0.00401488
-0.403164
0.00184333
-0.352391
-0.00169994
-0.31944
-0.306493
-0.0040335
4.10944
-1201.16
3.43515
-994.44
2.88332
-823.349
2.43328
-681.735
2.0668
-564.521
1.76839
-467.505
1.52519
-387.216
1.32666
-320.78
1.16421
-265.819
1.03085
-220.368
0.92096
-182.8
0.829944
-151.77
0.754054
-126.17
0.6902
-105.084
0.635743
-87.7573
0.58859
-73.5676
0.546945
-62.0059
0.509144
-52.6655
0.473366
-45.2149
0.438509
-39.374
0.402837
-34.9452
0.364568
-31.7683
0.322393
-29.7291
0.272704
-28.7768
0.214389
-28.7741
0.166183
-23.0898
0.127221
-18.5514
0.0965826
-14.9118
0.0733657
-11.9799
0.0562717
-9.61653
0.0440521
-7.71311
0.0348418
-6.18346
0.0277091
-4.95444
0.0222513
-3.96776
0.0180634
-3.17686
0.0148673
-2.54376
0.0125129
-2.03767
0.0109293
-1.63372
0.0100668
-1.3119
0.00985561
-1.05618
0.0101822
-0.853755
0.0109033
-0.694482
0.0118797
-0.570388
0.0130042
-0.475271
0.0142041
-0.404363
0.0144838
-0.352671
0.0122375
-0.31719
-0.276014
-0.0182393
4.24676
-1200.31
3.55225
-993.746
2.98512
-822.782
2.52378
-681.273
2.14911
-564.146
1.84486
-467.201
1.59753
-386.969
1.39609
-320.578
1.23159
-265.655
1.09675
-220.234
0.985736
-182.689
0.893794
-151.679
0.817056
-126.093
0.752332
-105.019
0.696902
-87.7019
0.648599
-73.5193
0.60556
-61.9629
0.566039
-52.626
0.528128
-45.177
0.490622
-39.3365
0.451656
-34.9062
0.409297
-31.7259
0.362
-29.6818
0.305949
-28.7208
0.23965
-28.7078
0.184942
-23.0351
0.140793
-18.5072
0.106102
-14.8771
0.0798214
-11.9536
0.0604636
-9.59717
0.0465187
-7.69916
0.0361022
-6.17304
0.0281702
-4.94651
0.0221405
-3.96173
0.0175261
-3.17224
0.0139891
-2.54022
0.0113353
-2.03502
0.00948722
-1.63187
0.0084493
-1.31086
0.00827475
-1.05601
0.00902385
-0.854504
0.0107254
-0.696183
0.0133553
-0.573018
0.0168555
-0.478771
0.0211943
-0.408702
0.027678
-0.359154
0.0383487
-0.327863
-0.297266
0.0595994
4.39109
-1199.44
3.67547
-993.03
3.09244
-822.199
2.61947
-680.8
2.23647
-563.763
1.92635
-466.891
1.67496
-386.718
1.47074
-320.374
1.30431
-265.488
1.16812
-220.097
1.05611
-182.577
0.963341
-151.586
0.885827
-126.016
0.820274
-104.953
0.763876
-87.6455
0.714389
-73.4698
0.669877
-61.9184
0.628508
-52.5846
0.588279
-45.1368
0.547872
-39.2961
0.505283
-34.8636
0.458416
-31.6791
0.405471
-29.6288
0.342407
-28.6577
0.267319
-28.6327
0.205468
-22.9732
0.15562
-18.4574
0.116479
-14.838
0.0868337
-11.9239
0.0649846
-9.57533
0.0491683
-7.68335
0.037445
-6.16132
0.0286363
-4.9377
0.0219899
-3.95509
0.0169082
-3.16716
0.0129418
-2.53626
0.0097472
-2.03182
0.00703697
-1.62916
0.00455351
-1.30838
0.00205387
-1.05351
-0.000671858
-0.851778
-0.00377978
-0.693075
-0.00734545
-0.569453
-0.0113512
-0.474765
-0.0157145
-0.404339
-0.0203349
-0.354535
-0.0249209
-0.323274
-0.306736
-0.0154478
4.54277
-1198.54
3.80507
-992.292
3.20554
-821.599
2.72059
-680.316
2.32909
-563.372
2.01309
-466.575
1.7577
-386.462
1.55079
-320.167
1.38258
-265.32
1.24518
-219.96
1.13228
-182.464
1.03879
-151.492
0.960573
-125.937
0.894231
-104.887
0.836869
-87.5882
0.78616
-73.4191
0.740093
-61.8723
0.696739
-52.5413
0.653998
-45.0941
0.610427
-39.2525
0.563873
-34.8171
0.512062
-31.6273
0.452921
-29.5697
0.382172
-28.5869
0.29747
-28.548
0.227817
-22.9036
0.171745
-18.4013
0.12775
-14.794
0.0944299
-11.8906
0.0698566
-9.55076
0.0520169
-7.66551
0.0388818
-6.14818
0.029124
-4.92794
0.0218323
-3.94779
0.0163025
-3.16163
0.0119949
-2.53195
0.00849323
-2.02832
0.00545807
-1.62613
0.00264258
-1.30557
-0.000111825
-1.05075
-0.00288371
-0.849006
-0.0056853
-0.690274
-0.00848704
-0.566652
-0.0114068
-0.471846
-0.0147532
-0.400993
-0.0183543
-0.350934
-0.0193734
-0.322255
-0.305579
-0.0205307
4.70215
-1197.61
3.94137
-991.531
3.32466
-820.982
2.82734
-679.818
2.42718
-562.971
2.10526
-466.253
1.84592
-386.203
1.63644
-319.957
1.46656
-265.15
1.32807
-219.821
1.21441
-182.35
1.12029
-151.398
1.04145
-125.859
0.974354
-104.82
0.916029
-87.5298
0.864055
-73.3671
0.816344
-61.8246
0.770865
-52.4958
0.725409
-45.0486
0.6784
-39.2055
0.627527
-34.7662
0.570326
-31.5701
0.504429
-29.5038
0.425307
-28.5078
0.330152
-28.4528
0.252034
-22.8254
0.189207
-18.3385
0.139946
-14.7447
0.102636
-11.8533