/*--------------------------------*- C++ -*----------------------------------*\
  =========                 |
  \\      /  F ield         | OpenFOAM: The Open Source CFD Toolbox
   \\    /   O peration     | Website:  https://openfoam.org
    \\  /    A nd           | Version:  10
     \\/     M anipulation  |
\*---------------------------------------------------------------------------*/
FoamFile
{
    format      ascii;
    class       volVectorField;
    location    "5";
    object      U;
}
// * * * * * * * * * * * * * * * * * * * * * * * * * * * * * * * * * * * * * //

dimensions      [0 1 -1 0 0 0 0];

internalField   nonuniform List<vector> 
38016
(
(51.3032 9.04813 5.56516e-25)
(51.3044 9.04897 3.2359e-25)
(51.306 9.04912 -2.37424e-25)
(51.3066 9.04955 0)
(51.3067 9.04884 0)
(51.3078 9.04849 0)
(51.3095 9.04798 -3.71521e-25)
(51.3116 9.04718 -3.60894e-21)
(51.3147 9.04608 3.1473e-25)
(51.3188 9.04443 -3.81754e-25)
(51.3325 9.04165 2.10521e-20)
(51.3423 9.03884 -7.15252e-24)
(51.3562 9.03288 3.25023e-20)
(51.3762 9.02503 5.58669e-20)
(51.4013 9.0157 -4.12912e-20)
(51.4412 8.99702 0)
(51.5075 8.98394 0)
(51.5943 8.95242 0)
(51.6859 8.9262 2.27e-23)
(51.8137 8.88795 -2.54242e-23)
(51.9778 8.86974 6.64138e-20)
(52.1628 8.76617 -8.81026e-20)
(52.4841 8.68696 1.06651e-20)
(52.8597 8.59768 -5.75185e-22)
(53.3133 8.50296 1.5676e-19)
(53.9358 8.44782 -1.70595e-24)
(54.3467 8.50792 8.27574e-20)
(54.6224 8.55129 -8.29538e-22)
(55.1478 8.48772 -1.14519e-24)
(55.5666 8.53157 0)
(55.5784 8.6822 -1.09784e-24)
(56.2343 8.8479 -3.15306e-21)
(56.5722 8.93839 1.33209e-19)
(57.7095 9.03638 0)
(57.2018 9.11332 0)
(58.7812 9.52466 0)
(58.7106 9.88401 0)
(59.0722 10.3059 1.12215e-21)
(59.5478 10.9493 1.09845e-21)
(59.6293 11.195 2.04634e-23)
(60.0045 11.4944 -4.96669e-23)
(60.5024 12.045 -4.22887e-21)
(60.9114 12.4589 9.27351e-22)
(60.8147 13.2764 -1.31183e-21)
(62.0551 13.9391 0)
(62.0368 13.7297 0)
(61.6366 13.2292 2.52687e-20)
(63.7345 13.686 -4.7954e-21)
(51.3037 9.04798 -2.15137e-20)
(51.3046 9.049 8.29495e-25)
(51.3058 9.04943 2.62263e-20)
(51.305 9.04907 0)
(51.3067 9.0488 0)
(51.3078 9.04844 -1.17612e-20)
(51.3095 9.04792 2.39565e-26)
(51.3116 9.0471 3.60672e-21)
(51.3147 9.04597 -3.64374e-21)
(51.3187 9.0443 -4.36274e-26)
(51.3334 9.04264 2.12015e-20)
(51.3434 9.04048 1.13319e-23)
(51.3574 9.03503 -3.3161e-20)
(51.3811 9.02709 -5.58398e-20)
(51.406 9.01699 2.54449e-20)
(51.4302 9.00614 -1.53594e-19)
(51.4657 9.01348 -1.80254e-19)
(51.5744 8.9696 2.00421e-22)
(51.6496 8.95238 6.47143e-23)
(51.7628 8.91273 -3.42318e-22)
(51.9927 8.86009 -1.99944e-19)
(52.1414 8.7988 3.08066e-19)
(52.3444 8.67849 -1.08972e-19)
(52.6494 8.67673 -5.76895e-19)
(53.0848 8.58889 3.34238e-19)
(53.622 8.54414 1.02744e-21)
(54.6262 8.49096 -8.17212e-20)
(55.1127 8.52882 -2.27229e-19)
(55.643 8.44411 1.55479e-19)
(56.0723 8.47622 0)
(55.7882 8.64247 0)
(57.5802 8.73172 -5.94731e-21)
(57.8901 8.92174 -3.85359e-21)
(57.6966 9.02473 7.20281e-20)
(57.2911 9.17631 0)
(58.2838 9.59594 -5.34558e-20)
(58.3549 10.0123 0)
(58.5679 10.5692 -1.06108e-20)
(59.21 11.1503 1.39113e-20)
(58.0161 10.8766 -4.06664e-20)
(59.8515 11.6709 8.8658e-21)
(60.9497 12.2646 2.86548e-21)
(61.8802 12.5794 1.55112e-21)
(62.7939 12.8717 -7.22645e-22)
(60.762 12.9303 0)
(60.048 12.8735 0)
(61.9766 12.8831 1.95796e-20)
(62.927 12.6121 -3.05457e-20)
(51.304 9.04786 -2.54506e-22)
(51.305 9.04897 0)
(51.3044 9.04907 -4.42615e-20)
(51.3057 9.04897 0)
(51.3067 9.04876 0)
(51.3078 9.0484 1.17669e-20)
(51.3095 9.04786 -1.97584e-25)
(51.3116 9.04703 2.9039e-25)
(51.3147 9.04587 3.64914e-21)
(51.3187 9.04416 -5.87553e-26)
(51.3325 9.04174 -4.26184e-20)
(51.3428 9.03935 -7.35984e-20)
(51.3559 9.03224 1.1448e-19)
(51.38 9.02665 1.15648e-22)
(51.4155 9.01292 -1.44072e-23)
(51.4438 9.00915 1.53606e-19)
(51.5335 8.98986 2.10888e-20)
(51.6061 8.97476 -4.19042e-23)
(51.6878 8.96145 2.35695e-22)
(51.8191 8.92238 0)
(51.9757 8.86929 4.0476e-19)
(52.2707 8.76613 -8.79152e-20)
(52.5221 8.7003 2.25176e-19)
(53.0798 8.59104 7.06176e-20)
(53.701 8.50365 5.9872e-22)
(54.3623 8.42858 0)
(54.783 8.49691 -3.37672e-19)
(55.4475 8.53293 2.25919e-19)
(56.0139 8.43778 -1.54192e-19)
(56.4855 8.47003 0)
(56.7738 8.54037 -2.87003e-22)
(56.2868 8.82984 -1.75957e-19)
(56.4959 9.0082 -3.15858e-20)
(57.8799 9.11939 -5.32849e-20)
(58.3031 9.27989 6.08265e-21)
(57.5172 9.25504 1.20909e-19)
(57.9292 10.1374 0)
(58.9963 10.6797 4.4542e-20)
(59.6617 11.1358 -1.44051e-20)
(59.3264 11.1718 1.936e-21)
(61.0952 11.9219 -9.00151e-21)
(61.0919 12.0135 2.55951e-20)
(60.6424 12.1134 -7.48921e-20)
(62.0532 12.4966 9.95283e-21)
(62.6296 12.5691 -1.67969e-22)
(61.1368 12.8611 9.45108e-21)
(61.6077 12.7116 -2.31114e-22)
(63.5111 12.7786 7.29253e-21)
(51.304 9.04786 1.12451e-19)
(51.305 9.04897 0)
(51.3051 9.049 3.14242e-20)
(51.3054 9.04897 4.10743e-24)
(51.3067 9.04873 4.05558e-20)
(51.3078 9.04836 -7.1804e-25)
(51.3095 9.04781 -1.40046e-20)
(51.3116 9.04695 0)
(51.3146 9.04576 -7.9438e-21)
(51.3187 9.04403 0)
(51.3314 9.04275 -1.01723e-19)
(51.3384 9.04614 1.46488e-19)
(51.3578 9.03367 -1.31766e-19)
(51.3799 9.02764 -4.79562e-23)
(51.4054 9.02004 -1.94794e-19)
(51.4577 9.01089 -3.1138e-19)
(51.4848 9.01179 3.01709e-22)
(51.6284 8.97725 -3.23838e-22)
(51.7026 8.9696 0)
(51.8001 8.93881 4.79753e-19)
(51.9745 8.87772 -5.93852e-19)
(52.1013 8.83154 4.99121e-19)
(52.3978 8.76766 -9.91598e-19)
(52.6463 8.71772 -5.10447e-19)
(53.0945 8.63809 -5.94601e-19)
(53.6261 8.61334 -4.1339e-21)
(54.3497 8.64964 1.24153e-22)
(54.9935 8.66712 9.72114e-19)
(55.5391 8.60216 -6.73042e-19)
(55.9479 8.61672 0)
(56.0398 8.60775 0)
(56.8767 8.69597 6.94313e-22)
(56.9281 8.95271 7.30623e-21)
(57.0544 9.23435 0)
(57.1727 9.02492 -2.02946e-19)
(57.8455 9.4472 0)
(58.3904 9.94169 0)
(58.8188 10.796 -4.96289e-20)
(59.9861 11.1297 2.98039e-20)
(57.7839 11.0693 6.01692e-20)
(59.3552 11.5048 -8.49387e-20)
(59.8219 11.0548 -5.22387e-20)
(61.4848 11.9354 -7.19797e-21)
(60.3149 12.3648 1.64736e-19)
(62.0833 12.727 0)
(60.0026 12.4027 5.23727e-22)
(61.1453 12.6184 1.12181e-19)
(63.4398 12.4036 -1.9214e-20)
(51.3038 9.04798 -8.7191e-20)
(51.3046 9.04913 -4.51014e-24)
(51.3046 9.04901 5.58121e-20)
(51.3055 9.04893 -3.5156e-20)
(51.3067 9.04869 -4.05768e-20)
(51.3078 9.04831 -2.51405e-20)
(51.3095 9.04775 -1.47329e-20)
(51.3115 9.04688 0)
(51.3146 9.04565 7.95054e-21)
(51.3187 9.04388 -1.17799e-25)
(51.3354 9.04046 2.454e-20)
(51.3393 9.03816 4.03202e-25)
(51.3524 9.0431 0)
(51.3842 9.02881 -6.91604e-23)
(51.4157 9.02094 1.94949e-19)
(51.4672 9.01177 3.11521e-19)
(51.5046 8.99218 1.53957e-19)
(51.573 9.00189 -5.30816e-19)
(51.6374 8.9972 0)
(51.8222 8.9237 -3.60499e-19)
(51.976 8.87323 1.68097e-19)
(52.233 8.79731 -1.09872e-19)
(52.522 8.7169 2.18516e-19)
(52.8666 8.64343 1.63075e-22)
(53.4286 8.55767 -1.51319e-22)
(54.0155 8.48189 -1.44454e-22)
(54.643 8.51153 4.63405e-20)
(55.3894 8.51094 -3.34809e-20)
(55.9158 8.40766 8.24871e-22)
(56.2086 8.4709 0)
(56.9705 8.51852 1.47489e-21)
(56.2595 8.69159 1.72935e-19)
(55.9898 8.88574 -1.45751e-19)
(57.2494 9.04598 0)
(57.707 9.33295 0)
(58.0625 9.74813 -5.27456e-22)
(58.3915 10.018 -4.84201e-22)
(58.5026 10.5842 2.65801e-20)
(58.591 11.0797 1.73543e-21)
(60.0952 11.0998 -1.28024e-20)
(61.3114 11.4426 5.95937e-21)
(61.7338 11.7521 7.44937e-21)
(62.4714 11.8673 2.52299e-20)
(62.3184 11.7169 -2.65888e-20)
(63.2286 12.3674 -1.82422e-19)
(59.397 11.5792 3.94229e-19)
(61.3937 12.1621 1.48205e-20)
(63.3918 11.6358 7.76804e-21)
(51.3035 9.04814 0)
(51.304 9.04898 0)
(51.3048 9.04895 -5.58269e-20)
(51.3055 9.0489 3.51692e-20)
(51.3067 9.04866 0)
(51.3078 9.04827 2.51564e-20)
(51.3095 9.04768 2.87695e-20)
(51.3115 9.04679 -1.03937e-24)
(51.3146 9.04553 0)
(51.3187 9.04369 0)
(51.3307 9.04724 3.40017e-19)
(51.3385 9.0382 0)
(51.3639 9.03021 0)
(51.3896 9.02951 2.29933e-19)
(51.4221 9.02164 3.93375e-19)
(51.4395 9.03476 -6.24761e-19)
(51.4668 9.02491 -4.89322e-19)
(51.608 8.96071 2.16209e-19)
(51.6178 8.95283 1.19749e-22)
(51.7572 8.91649 4.03678e-19)
(51.9114 8.86768 -5.54226e-19)
(52.1052 8.78978 0)
(52.3469 8.70457 -4.59681e-19)
(52.6777 8.61621 0)
(53.1601 8.5066 0)
(53.7237 8.42679 2.04704e-21)
(54.3328 8.43956 -1.04695e-18)
(55.0693 8.42399 4.79706e-19)
(55.6233 8.32553 3.23675e-19)
(55.9389 8.33342 0)
(55.9622 8.70764 5.75302e-19)
(56.7418 8.67858 1.14237e-20)
(56.0959 8.8697 5.55173e-20)
(57.0243 9.03897 4.12192e-20)
(56.9022 9.37532 4.8575e-20)
(58.934 9.76455 -2.42122e-20)
(59.47 9.95047 3.98025e-21)
(59.9498 10.2626 -4.9309e-21)
(60.5936 10.5771 -6.86825e-21)
(58.5108 10.8343 2.35513e-19)
(59.5512 10.913 -2.59618e-19)
(60.0057 10.9468 -2.08051e-19)
(61.3683 10.8508 3.08556e-19)
(60.9944 10.9754 3.86294e-20)
(61.7227 11.15 -3.93451e-19)
(60.91 11.1429 3.29021e-20)
(59.9962 12.2102 -2.26385e-20)
(64.1701 11.317 -5.34408e-21)
(51.3029 9.04837 -9.74335e-24)
(51.3038 9.04894 0)
(51.3047 9.04893 5.77055e-20)
(51.3055 9.04887 -8.64686e-24)
(51.3067 9.04862 5.23023e-24)
(51.3078 9.04822 -9.40182e-24)
(51.3095 9.04762 -3.02264e-20)
(51.3115 9.04671 3.46403e-20)
(51.3146 9.04542 0)
(51.3187 9.04352 -1.43516e-20)
(51.3277 9.04162 1.09891e-21)
(51.3382 9.03676 -2.88212e-24)
(51.3548 9.04473 5.56811e-23)
(51.3758 9.04371 -4.58468e-19)
(51.403 9.03988 -7.84585e-19)
(51.439 9.00626 4.95549e-20)
(51.5039 8.98758 3.64225e-23)
(51.5856 8.97514 -3.75579e-19)
(51.5905 8.94771 -7.16798e-23)
(51.7833 8.91131 0)
(51.9355 8.8669 5.56646e-19)
(52.164 8.78759 7.51839e-19)
(52.4262 8.69863 0)
(52.785 8.60642 0)
(53.3175 8.48908 -2.87758e-21)
(53.9345 8.40326 3.57865e-21)
(54.5888 8.40904 7.00429e-19)
(55.4025 8.38784 -4.7995e-19)
(55.992 8.2797 -5.42343e-21)
(56.3127 8.27074 1.38566e-20)
(56.6133 8.4638 -1.90807e-20)
(56.1363 8.84562 7.85555e-19)
(56.3694 8.8038 5.23291e-21)
(56.3272 9.23202 -6.30328e-19)
(57.3784 9.33796 0)
(57.9447 9.83148 2.54414e-19)
(58.4523 9.84842 7.98499e-20)
(58.5125 10.0242 -2.92443e-19)
(58.8203 10.3063 2.5796e-19)
(60.2054 10.4453 -9.0187e-21)
(60.9752 10.7306 0)
(61.1492 10.8196 -3.75904e-21)
(61.4163 10.8323 -3.07238e-22)
(62.1241 10.9052 2.14179e-20)
(62.2579 10.9879 -5.59137e-20)
(60.7164 11.1394 -2.25813e-21)
(61.3821 11.5366 4.44867e-20)
(63.5635 11.495 -3.07783e-20)
(51.3031 9.04823 1.37862e-19)
(51.3039 9.04889 -9.28677e-20)
(51.3047 9.0489 5.95477e-20)
(51.3055 9.04884 7.39498e-20)
(51.3067 9.04858 1.51821e-26)
(51.3078 9.04817 6.44409e-24)
(51.3095 9.04755 6.12228e-20)
(51.3115 9.04661 -3.4674e-20)
(51.3146 9.04529 7.37387e-25)
(51.3187 9.04334 1.43969e-20)
(51.3297 9.03996 0)
(51.338 9.0386 3.07371e-19)
(51.3559 9.03188 5.34474e-24)
(51.3757 9.0251 -6.31909e-24)
(51.4018 9.01649 -1.79532e-23)
(51.4327 9.00778 -1.6975e-19)
(51.4649 9.00552 -3.00812e-22)
(51.5452 9.01608 6.61689e-22)
(51.5851 8.94085 0)
(51.7863 8.91766 0)
(51.9459 8.87553 0)
(52.2 8.79441 -7.54862e-19)
(52.4712 8.70541 -3.35661e-22)
(52.841 8.61389 5.97386e-19)
(53.4012 8.49386 0)
(54.0454 8.40771 0)
(54.7324 8.40581 0)
(55.5943 8.37868 -4.89956e-19)
(56.2133 8.26921 6.72754e-19)
(56.5199 8.25462 -4.66582e-19)
(55.9679 8.68557 -5.19485e-19)
(57.0194 8.63787 -2.85541e-20)
(57.318 8.80629 -1.78386e-20)
(56.9335 8.97115 -3.61626e-21)
(56.634 9.49031 0)
(58.6648 9.39698 0)
(59.1337 9.67881 6.9385e-21)
(59.431 9.89098 9.86068e-21)
(59.8532 10.0854 -6.74679e-21)
(58.5486 10.3087 1.32748e-19)
(59.1361 9.96945 -3.45818e-19)
(60.0236 10.0191 5.65217e-19)
(60.5978 10.2729 -1.99254e-19)
(61.1549 10.3265 0)
(61.6613 10.438 1.85564e-19)
(59.9967 10.6271 -5.66236e-19)
(61.1248 10.679 -3.07258e-20)
(62.1265 10.6607 4.86671e-20)
(51.3031 9.04822 -2.78079e-19)
(51.3039 9.04887 9.29257e-20)
(51.3047 9.04887 -1.17321e-19)
(51.3055 9.0488 -7.39896e-20)
(51.3067 9.04854 0)
(51.3078 9.04811 3.22801e-24)
(51.3095 9.04748 3.24276e-20)
(51.3115 9.04652 0)
(51.3145 9.04516 -3.83866e-20)
(51.3187 9.04315 0)
(51.329 9.04152 -6.68316e-24)
(51.3397 9.03834 -3.05919e-19)
(51.354 9.03384 0)
(51.3723 9.02734 0)
(51.3975 9.01829 -3.69958e-23)
(51.4186 9.00724 6.39875e-19)
(51.4662 8.98661 -1.51144e-22)
(51.5405 8.96947 1.11394e-19)
(51.5513 8.95751 0)
(51.7531 8.92961 0)
(51.858 8.92071 0)
(52.0445 8.89563 3.25027e-21)
(52.2634 8.83457 -3.48556e-21)
(52.5897 8.76434 -1.21076e-18)
(53.0506 8.66565 0)
(53.5994 8.63042 0)
(54.209 8.63004 -1.45286e-18)
(54.9353 8.61486 2.00438e-18)
(55.5003 8.54478 3.68096e-22)
(55.777 8.49328 9.32275e-19)
(55.8178 8.47319 -1.721e-20)
(56.2026 9.08159 -7.83317e-19)
(56.5568 9.24295 5.18005e-19)
(57.7851 8.96914 0)
(57.2668 9.06235 0)
(58.1658 9.55146 -3.21579e-19)
(58.6731 9.51672 8.2428e-20)
(58.8244 9.54725 1.02135e-19)
(58.885 9.59844 -1.43002e-19)
(60.1906 9.96667 -1.15393e-20)
(60.6213 9.82844 2.16576e-20)
(59.8868 9.82958 -1.07745e-20)
(60.2876 10.0339 0)
(60.7663 9.94829 0)
(61.062 9.88455 4.88343e-21)
(59.8617 9.746 0)
(59.6904 10.3472 7.95387e-20)
(61.555 9.40184 0)
(51.3031 9.04817 1.4018e-19)
(51.3039 9.04884 0)
(51.3047 9.04884 -1.21079e-19)
(51.3055 9.04877 -7.63721e-20)
(51.3067 9.04849 -9.10743e-20)
(51.3078 9.04806 -6.5981e-24)
(51.3095 9.04741 -1.28369e-19)
(51.3115 9.04642 -6.71968e-24)
(51.3145 9.04501 3.84374e-20)
(51.3186 9.04294 1.20035e-24)
(51.33 9.0413 -3.47571e-19)
(51.335 9.04541 0)
(51.35 9.03367 0)
(51.3664 9.02759 0)
(51.3885 9.01869 4.01459e-19)
(51.4226 9.00549 -6.41885e-19)
(51.461 8.9908 4.98897e-19)
(51.5346 8.96277 -1.3138e-19)
(51.5612 8.93566 7.99614e-23)
(51.7343 8.91644 0)
(51.8304 8.87225 -2.79605e-22)
(52.0072 8.80136 1.58242e-22)
(52.2255 8.71921 0)
(52.4889 8.64447 5.84488e-20)
(52.9307 8.53332 5.37805e-23)
(53.398 8.44712 -7.088e-23)
(53.9477 8.41855 -3.46682e-20)
(54.6294 8.37496 -2.38862e-21)
(55.1474 8.27719 3.26335e-20)
(55.2183 8.33485 2.90205e-20)
(55.8943 8.42183 -9.93167e-22)
(55.8045 8.62405 -2.21339e-20)
(56.4017 8.82681 0)
(57.0125 9.41935 0)
(58.3635 9.11413 1.63438e-20)
(58.7338 9.31198 2.56924e-19)
(59.2148 9.38221 -1.61206e-19)
(58.6058 9.33387 -1.15263e-19)
(59.2638 9.32295 -5.25369e-22)
(58.5342 9.60534 3.09595e-19)
(58.6608 9.80221 -4.19491e-19)
(60.1524 9.73251 -1.37195e-21)
(59.8134 9.78785 9.71009e-21)
(60.7629 9.80334 1.9926e-21)
(60.9334 9.69013 -3.07529e-21)
(59.9834 9.33459 2.51834e-20)
(59.5947 9.3026 -1.07563e-19)
(60.3017 9.5682 5.42393e-19)
(51.3031 9.04813 -1.86495e-23)
(51.3039 9.04881 -1.94322e-19)
(51.3047 9.04881 2.44089e-19)
(51.3055 9.04873 7.6418e-20)
(51.3067 9.04845 9.11288e-20)
(51.3077 9.048 6.83033e-24)
(51.3094 9.04733 6.49536e-20)
(51.3115 9.04631 4.73286e-24)
(51.3145 9.04487 -1.03777e-24)
(51.3186 9.04273 1.25259e-24)
(51.3269 9.04513 1.24104e-21)
(51.331 9.03598 -3.33734e-27)
(51.3509 9.03303 0)
(51.3678 9.02666 4.68928e-19)
(51.3909 9.0173 -4.01075e-19)
(51.4074 9.01954 9.95918e-19)
(51.4365 9.02428 -9.96966e-19)
(51.503 8.96718 -7.79675e-19)
(51.5579 8.92747 -8.90905e-23)
(51.677 8.90214 -1.76624e-22)
(51.8232 8.82763 -2.76999e-23)
(52.0154 8.75174 -1.16312e-19)
(52.2301 8.65834 -2.45646e-22)
(52.5208 8.55741 -1.38665e-19)
(52.9697 8.42838 0)
(53.4942 8.30929 2.72324e-22)
(54.067 8.27082 -3.36755e-22)
(54.8142 8.22644 2.96923e-20)
(55.3326 8.13736 -5.99952e-22)
(55.4732 8.13812 6.1491e-22)
(55.5442 8.33231 -6.10217e-19)
(56.1124 8.43419 2.15062e-20)
(56.1547 8.77128 -3.53177e-20)
(56.5691 8.95023 -1.44562e-20)
(57.3541 9.4978 -5.29595e-19)
(59.019 9.25903 0)
(59.494 9.33008 0)
(59.7616 9.21795 -8.52946e-21)
(60.1351 8.97652 1.20866e-20)
(58.9332 9.0302 -5.98768e-22)
(59.1226 9.51999 4.94369e-20)
(59.6307 9.60699 -2.50178e-20)
(59.242 9.41112 7.19611e-21)
(59.9813 9.4661 -4.90837e-21)
(60.1637 9.27112 -4.79127e-20)
(59.3979 8.89781 2.26359e-20)
(59.7237 9.05869 0)
(59.223 8.77045 7.40699e-19)
(51.3031 9.04808 -2.93881e-19)
(51.3039 9.04878 -1.99989e-19)
(51.3047 9.04878 -1.23012e-19)
(51.3055 9.04869 1.57635e-19)
(51.3066 9.0484 -1.14734e-23)
(51.3077 9.04794 -1.15811e-19)
(51.3094 9.04725 0)
(51.3115 9.0462 7.90634e-20)
(51.3145 9.04472 4.23912e-20)
(51.3186 9.0425 1.88277e-20)
(51.3238 9.03979 -2.00382e-21)
(51.3326 9.03472 6.43225e-27)
(51.3457 9.03737 0)
(51.3601 9.03423 -1.37031e-18)
(51.3799 9.02914 -1.2635e-18)
(51.4093 8.99639 -1.35938e-19)
(51.4444 8.9781 2.88549e-23)
(51.5154 8.96463 7.79779e-19)
(51.5545 8.92255 0)
(51.6817 8.89465 -9.16404e-22)
(51.7414 8.87602 1.22874e-21)
(51.9302 8.77179 7.76176e-19)
(52.1138 8.6743 1.77858e-21)
(52.4089 8.58477 -2.57973e-21)
(52.7964 8.44005 7.099e-19)
(53.3273 8.34152 1.02083e-18)
(53.8492 8.2848 -7.30617e-19)
(54.5615 8.20749 -2.05078e-18)
(55.0627 8.11779 -2.27292e-20)
(55.3439 8.15577 4.62835e-19)
(55.7305 8.28565 6.48685e-19)
(55.9163 8.44163 1.93174e-21)
(55.9137 8.77395 -2.56638e-19)
(56.9648 8.71204 -2.09224e-20)
(57.3014 8.96502 7.4365e-21)
(58.0129 9.26884 -1.04585e-18)
(58.3856 9.42598 -3.33295e-19)
(58.5137 9.48138 4.39746e-19)
(58.8466 9.07719 -2.76202e-19)
(58.4342 9.10488 -2.48269e-19)
(58.4568 9.49619 6.94053e-19)
(59.5803 9.56587 -4.61038e-19)
(59.2153 9.24279 1.97715e-19)
(59.7805 9.23015 -1.51833e-18)
(59.9335 8.88563 7.97761e-19)
(59.3249 8.76752 0)
(59.3261 8.62254 3.15924e-20)
(59.366 8.28892 -2.27148e-19)
(51.3031 9.04804 2.93996e-19)
(51.3039 9.04874 5.94661e-19)
(51.3047 9.04874 -1.26795e-19)
(51.3055 9.04865 -3.17745e-19)
(51.3066 9.04835 0)
(51.3077 9.04788 1.15882e-19)
(51.3094 9.04717 0)
(51.3115 9.04609 -7.91332e-20)
(51.3144 9.04455 -4.24403e-20)
(51.3186 9.04227 -1.88687e-20)
(51.3245 9.03891 2.35431e-20)
(51.3314 9.0345 -4.9365e-21)
(51.344 9.02969 1.14892e-19)
(51.3589 9.02118 9.43089e-20)
(51.3795 9.00971 1.51049e-19)
(51.4067 8.99196 8.40826e-20)
(51.4415 8.97165 0)
(51.4803 9.01123 0)
(51.5538 8.91657 8.95508e-23)
(51.6215 8.96012 1.61286e-18)
(51.7475 8.8442 -5.87798e-19)
(51.939 8.77543 0)
(52.1454 8.66894 0)
(52.3399 8.65365 0)
(52.7735 8.46284 -1.63501e-18)
(53.2034 8.44487 -2.8986e-18)
(53.8435 8.29602 8.20849e-19)
(54.7513 8.1622 1.02946e-18)
(55.2675 8.06204 0)
(55.0861 8.2932 0)
(55.2003 8.46245 6.04234e-20)
(55.788 8.47302 -5.24524e-19)
(55.5233 8.54443 -3.39985e-20)
(56.6914 8.74594 -8.41964e-20)
(57.0756 8.59153 3.19929e-19)
(57.091 8.91182 -8.26969e-21)
(57.5321 8.94854 1.5578e-21)
(58.3412 8.98188 1.64212e-20)
(58.41 8.94337 0)
(58.5371 9.09652 -7.15292e-19)
(58.6254 9.13254 5.40601e-19)
(58.5214 9.34826 0)
(58.507 8.83126 0)
(58.6956 9.13145 7.1762e-20)
(58.6335 9.08184 0)
(59.0468 8.57971 4.92845e-22)
(59.0723 8.513 -1.65668e-21)
(59.2293 8.08087 1.02383e-21)
(51.3031 9.04799 -3.03016e-19)
(51.3039 9.04871 2.79411e-21)
(51.3047 9.04871 -1.30505e-19)
(51.3055 9.04861 3.22659e-19)
(51.3066 9.0483 -9.77476e-20)
(51.3077 9.04781 -1.44327e-23)
(51.3094 9.04708 0)
(51.3115 9.04597 4.71845e-24)
(51.3144 9.04439 -5.69618e-24)
(51.3185 9.04203 0)
(51.3239 9.03869 1.04255e-21)
(51.3317 9.0339 4.88902e-21)
(51.3424 9.02751 -3.00928e-20)
(51.3575 9.01838 8.37235e-20)
(51.378 9.00622 0)
(51.405 8.98992 0)
(51.4387 8.96953 0)
(51.4943 8.94743 0)
(51.5528 8.91034 -8.97615e-23)
(51.6467 8.87345 -1.21213e-19)
(51.7447 8.81719 2.79028e-19)
(51.8844 8.79041 1.50434e-21)
(52.043 8.74451 -2.3889e-21)
(52.3289 8.55692 2.09626e-19)
(52.6958 8.43161 3.13327e-19)
(53.1492 8.29432 1.67988e-19)
(53.6546 8.29095 -7.16617e-21)
(54.2514 8.51009 3.14523e-20)
(54.706 8.44125 -1.4389e-18)
(54.8551 8.09459 0)
(55.0696 8.19463 0)
(55.4988 8.39794 1.23735e-19)
(55.7143 8.43062 4.95277e-21)
(56.7777 8.65132 8.83835e-20)
(57.3243 8.63685 -7.35634e-19)
(57.4392 8.57993 1.58461e-20)
(57.305 8.72839 2.65883e-20)
(57.7747 8.84982 -2.16342e-19)
(58.0378 8.72495 6.31159e-19)
(57.9176 8.76808 2.37325e-19)
(58.0864 8.75826 -3.97335e-20)
(57.7345 8.61774 1.94101e-20)
(58.4674 8.62489 -9.11784e-21)
(58.0443 8.43822 -3.84002e-21)
(57.983 8.48854 -6.35983e-21)
(58.623 8.56749 1.8705e-21)
(58.7 8.4497 -4.58725e-21)
(58.9109 7.97851 0)
(51.3031 9.04793 6.10701e-19)
(51.3039 9.04867 -4.08796e-19)
(51.3047 9.04867 2.57382e-19)
(51.3055 9.04856 2.36084e-21)
(51.3066 9.04824 9.78005e-20)
(51.3077 9.04774 2.93198e-23)
(51.3094 9.04699 -1.76639e-23)
(51.3114 9.04584 8.49761e-20)
(51.3144 9.04421 4.84934e-24)
(51.3185 9.04178 -5.85375e-24)
(51.324 9.03829 -1.34861e-20)
(51.3315 9.0334 6.50778e-25)
(51.3422 9.02657 2.8988e-20)
(51.3568 9.01719 1.15449e-22)
(51.3767 9.00472 -9.28278e-20)
(51.4045 8.98762 -2.53005e-23)
(51.4389 8.96591 2.99588e-23)
(51.4885 8.93808 0)
(51.5516 8.90388 -9.13456e-23)
(51.6359 8.85503 -1.36043e-23)
(51.7395 8.79649 -1.40249e-19)
(51.8926 8.73302 0)
(52.0699 8.64327 6.79123e-20)
(52.3181 8.50416 -9.97205e-20)
(52.6751 8.37145 -6.73803e-23)
(53.1258 8.20396 4.55201e-20)
(53.5569 8.16046 -5.21099e-20)
(54.0399 8.11934 1.36958e-21)
(54.4125 8.06089 2.41159e-22)
(54.8377 7.97288 2.46801e-21)
(55.0352 8.05586 3.58666e-21)
(55.2872 8.22314 6.596e-20)
(55.6265 8.32167 -4.09316e-20)
(56.2388 8.60438 8.89132e-20)
(56.4546 8.89769 6.39322e-19)
(56.9598 8.65976 -6.39289e-19)
(56.8489 8.5782 7.25665e-21)
(57.9491 8.63275 0)
(57.5149 8.51184 6.77134e-22)
(57.4597 8.51164 5.08332e-21)
(57.6404 8.55198 0)
(58.0915 8.57488 -2.67313e-21)
(58.0242 8.4265 1.71237e-21)
(58.2428 8.35711 -1.11931e-21)
(58.3647 8.33864 0)
(58.2843 8.23124 -2.08439e-22)
(58.3902 8.1802 0)
(58.6152 7.73613 0)
(51.3031 9.04788 -3.07729e-19)
(51.3039 9.04864 4.14667e-19)
(51.3047 9.04863 -2.64936e-19)
(51.3055 9.04852 1.69746e-19)
(51.3066 9.04819 0)
(51.3077 9.04767 0)
(51.3094 9.0469 1.47702e-19)
(51.3114 9.04571 -8.50485e-20)
(51.3144 9.04402 0)
(51.3184 9.04151 -2.03912e-24)
(51.3239 9.03792 2.46256e-24)
(51.3314 9.03284 6.2402e-21)
(51.3418 9.02584 -2.89096e-20)
(51.3565 9.01605 -8.3578e-20)
(51.3764 9.00299 -5.44471e-22)
(51.4041 8.98516 0)
(51.438 8.96254 0)
(51.4848 8.93484 -6.48415e-23)
(51.5504 8.89699 7.5333e-23)
(51.6296 8.84851 2.362e-19)
(51.732 8.78605 -1.35466e-22)
(51.881 8.69876 0)
(52.0541 8.58869 -1.38281e-19)
(52.2931 8.46701 5.02727e-20)
(52.6563 8.294 0)
(53.0874 8.13461 0)
(53.5747 8.03197 5.29483e-20)
(54.1537 7.94041 -8.28718e-20)
(54.5574 7.86494 -5.9705e-20)
(54.7746 7.88039 0)
(55.002 7.95776 0)
(55.3387 8.08831 9.92162e-22)
(55.6798 8.17528 5.11907e-20)
(55.8359 8.25924 -1.30119e-20)
(56.0631 8.36526 3.19368e-20)
(56.7117 8.56035 1.9916e-21)
(56.9684 8.39502 -2.82559e-20)
(56.9233 8.48248 -2.84432e-19)
(57.2029 8.50054 4.02471e-20)
(57.5348 8.45575 6.35177e-20)
(57.6253 8.39194 -3.18027e-20)
(57.646 8.29291 0)
(57.8355 8.20662 -1.68768e-21)
(57.8455 8.11428 0)
(57.8993 8.02666 2.92824e-20)
(58.0465 7.95319 -3.0586e-20)
(58.1299 7.9225 0)
(58.3199 7.50571 0)
(51.3031 9.04782 0)
(51.3039 9.0486 -2.08811e-19)
(51.3047 9.04859 -3.68831e-21)
(51.3055 9.04847 -3.34957e-19)
(51.3066 9.04813 -2.0556e-19)
(51.3077 9.0476 1.26793e-19)
(51.3094 9.0468 -1.47805e-19)
(51.3114 9.04558 -1.02118e-23)
(51.3143 9.04383 9.81949e-20)
(51.3184 9.04123 -4.6758e-20)
(51.3238 9.03751 -2.04468e-24)
(51.3313 9.03225 -6.14187e-21)
(51.3418 9.02495 -3.13561e-24)
(51.3563 9.01478 -8.36282e-20)
(51.3761 9.00117 9.31439e-20)
(51.4037 8.98255 1.75903e-19)
(51.4375 8.95878 -1.53565e-23)
(51.4849 8.92905 0)
(51.5492 8.88963 0)
(51.6291 8.83734 -2.35938e-19)
(51.7318 8.77071 1.38245e-22)
(51.8703 8.68446 2.96698e-22)
(52.0386 8.57121 7.02898e-20)
(52.2879 8.42889 5.50685e-20)
(52.6364 8.25017 1.65855e-22)
(53.0792 8.06561 -2.1107e-22)
(53.5299 7.9639 -5.18998e-20)
(54.0434 7.87701 7.86994e-20)
(54.4348 7.80012 3.57035e-21)
(54.7768 7.77574 3.83467e-20)
(55.0053 7.8491 6.7735e-20)
(55.294 7.97711 -4.58819e-20)
(55.6578 8.05107 1.12593e-20)
(56.0084 8.09698 1.32533e-20)
(56.3082 8.16501 -4.83473e-20)
(56.3663 8.25164 -3.64068e-20)
(56.7828 8.17376 2.31566e-20)
(56.7036 8.1799 5.29542e-20)
(57.086 8.31167 0)
(57.2639 8.25672 -7.35026e-21)
(57.4257 8.15098 3.51425e-20)
(57.5915 8.06592 -3.30051e-20)
(57.6592 7.97411 -3.77052e-20)
(57.7484 7.891 4.20145e-20)
(57.8096 7.81451 -2.1789e-21)
(57.8355 7.73128 0)
(57.8966 7.70236 1.2915e-21)
(58.0615 7.30436 2.09616e-20)
(51.3031 9.04777 0)
(51.3039 9.04856 0)
(51.3047 9.04854 2.68809e-19)
(51.3055 9.04842 1.72322e-19)
(51.3066 9.04807 2.05672e-19)
(51.3077 9.04752 2.12002e-21)
(51.3094 9.04669 0)
(51.3114 9.04543 0)
(51.3143 9.04362 -9.82849e-20)
(51.3183 9.04094 -1.75138e-21)
(51.3237 9.03709 -3.57956e-20)
(51.3312 9.03163 -8.33531e-25)
(51.3416 9.02405 2.7521e-20)
(51.3561 9.01345 -6.59519e-23)
(51.3758 8.99922 0)
(51.4033 8.97975 1.71859e-21)
(51.4369 8.95481 -1.7376e-23)
(51.4838 8.92357 2.49732e-23)
(51.5479 8.88174 9.62773e-23)
(51.6271 8.82666 -2.35812e-22)
(51.7287 8.75578 1.41018e-22)
(51.8686 8.66166 -1.74682e-19)
(52.0373 8.53869 7.65338e-20)
(52.28 8.3881 2.49131e-21)
(52.6313 8.19077 -1.67747e-21)
(53.068 7.99105 -4.2845e-20)
(53.5318 7.86802 -1.75743e-21)
(54.0616 7.76485 -3.95604e-20)
(54.4599 7.68065 0)
(54.7664 7.66572 -8.90103e-20)
(55.0113 7.73257 -5.27407e-20)
(55.316 7.84604 -9.53402e-21)
(55.6533 7.91864 4.62958e-20)
(55.8764 7.97217 -1.36632e-20)
(56.1203 8.0223 -1.70796e-20)
(56.4673 8.05712 -3.92084e-20)
(56.7019 8.02451 -2.07174e-20)
(56.8503 8.02268 1.42478e-20)
(56.9661 8.06117 2.85001e-20)
(57.1805 8.0055 -6.66672e-20)
(57.3183 7.92084 3.43573e-20)
(57.4091 7.83279 3.33639e-20)
(57.4921 7.74974 -3.77935e-20)
(57.5398 7.66962 -4.53987e-20)
(57.5798 7.59385 5.65871e-20)
(57.6244 7.51996 1.82352e-21)
(57.6731 7.49684 -1.27081e-21)
(57.8141 7.11479 -3.62042e-20)
(51.3031 9.0477 -3.26157e-19)
(51.304 9.04851 1.04817e-22)
(51.3047 9.0485 -6.55702e-23)
(51.3055 9.04837 -5.21839e-19)
(51.3066 9.04801 2.12269e-19)
(51.3077 9.04744 -1.29021e-19)
(51.3093 9.04658 -3.01589e-25)
(51.3114 9.04528 -1.191e-23)
(51.3143 9.04341 -1.29547e-23)
(51.3183 9.04063 -1.75699e-21)
(51.3236 9.03664 7.39816e-20)
(51.3311 9.03098 -3.26175e-24)
(51.3414 9.02308 -8.14465e-20)
(51.3559 9.01203 -4.75783e-23)
(51.3755 8.99715 -6.15237e-24)
(51.4028 8.97677 -3.56097e-19)
(51.4362 8.95055 1.48851e-19)
(51.4831 8.91748 0)
(51.5467 8.87329 4.89442e-23)
(51.6254 8.81484 -5.60365e-23)
(51.7265 8.73933 1.56165e-19)
(51.864 8.63967 -3.83893e-21)
(52.0313 8.50847 -7.62799e-20)
(52.2728 8.34466 -5.73499e-20)
(52.6212 8.13169 1.54445e-21)
(53.0574 7.91206 6.26273e-20)
(53.5185 7.77355 1.04281e-19)
(54.038 7.65996 8.41774e-20)
(54.4377 7.56969 4.30127e-21)
(54.7608 7.54719 3.95368e-20)
(55.0143 7.60752 -7.78485e-21)
(55.3157 7.70989 1.9283e-20)
(55.6428 7.77579 -4.64642e-20)
(55.9103 7.81804 -1.45138e-20)
(56.1629 7.85734 3.40113e-20)
(56.3532 7.87917 -7.04669e-22)
(56.6118 7.85187 0)
(56.6936 7.83051 -1.42118e-20)
(56.9092 7.81802 0)
(57.0669 7.76334 -3.38802e-20)
(57.1858 7.68742 3.67819e-21)
(57.2745 7.60913 8.38657e-20)
(57.3314 7.53252 -5.13788e-20)
(57.3746 7.46094 -5.34428e-20)
(57.4045 7.39464 8.33468e-22)
(57.4264 7.32823 6.43992e-20)
(57.4615 7.31192 0)
(57.5801 6.94656 4.99608e-20)
(51.3031 9.04764 6.56934e-19)
(51.304 9.04847 0)
(51.3047 9.04845 -2.80181e-19)
(51.3055 9.04832 5.2684e-19)
(51.3066 9.04794 -2.12385e-19)
(51.3077 9.04736 1.33344e-19)
(51.3093 9.04647 1.93983e-23)
(51.3113 9.04512 -9.48798e-20)
(51.3142 9.04319 -1.81015e-24)
(51.3182 9.04031 5.04865e-20)
(51.3235 9.03617 -3.81802e-20)
(51.331 9.03028 0)
(51.3412 9.02206 5.38306e-20)
(51.3557 9.01052 8.33337e-20)
(51.3751 8.99494 -1.89619e-19)
(51.4023 8.97357 3.59e-19)
(51.4356 8.94599 2.09662e-21)
(51.4822 8.91102 4.312e-24)
(51.5454 8.86424 -2.98781e-23)
(51.6235 8.80231 -2.53655e-19)
(51.7239 8.7219 -3.15102e-19)
(51.8599 8.61549 1.77809e-19)
(52.0263 8.47492 -8.1773e-20)
(52.2645 8.29859 6.23019e-20)
(52.6112 8.06782 -8.1096e-23)
(53.0449 7.82836 -5.55444e-22)
(53.508 7.67101 -5.13269e-20)
(54.0258 7.54396 -3.92872e-20)
(54.4286 7.4465 -3.73227e-21)
(54.7522 7.42101 -6.06929e-21)
(55.0169 7.47374 7.5845e-21)
(55.3193 7.56379 0)
(55.6339 7.62319 -6.11512e-20)
(55.8882 7.6596 4.49975e-20)
(56.1281 7.68555 0)
(56.3611 7.68933 2.07594e-20)
(56.5578 7.66398 -2.38754e-20)
(56.7069 7.63022 2.91562e-20)
(56.8431 7.59304 0)
(56.9712 7.53329 -3.63996e-20)
(57.0664 7.46269 5.62282e-20)
(57.1336 7.39076 -5.91669e-22)
(57.1814 7.32262 -6.61467e-21)
(57.2125 7.26038 0)
(57.2351 7.20495 -6.75444e-20)
(57.2557 7.15312 7.67615e-20)
(57.2878 7.15445 -6.96272e-20)
(57.3959 6.82285 6.31242e-20)
(51.3032 9.04757 -3.30873e-19)
(51.304 9.04842 0)
(51.3047 9.04841 5.64332e-19)
(51.3055 9.04826 -5.36585e-19)
(51.3066 9.04787 0)
(51.3077 9.04727 2.12468e-21)
(51.3093 9.04635 -1.62688e-19)
(51.3113 9.04496 1.91875e-19)
(51.3142 9.04295 -1.5354e-23)
(51.3182 9.03997 -5.41261e-20)
(51.3235 9.03567 -1.25896e-23)
(51.3309 9.02955 6.00996e-24)
(51.3411 9.02097 -7.17958e-24)
(51.3554 9.00891 0)
(51.3748 8.99258 1.89427e-19)
(51.4019 8.97016 -1.80163e-19)
(51.435 8.9411 -1.50561e-19)
(51.4814 8.90408 -5.21786e-23)
(51.544 8.85454 -1.89035e-19)
(51.6216 8.78885 5.11132e-19)
(51.7212 8.70323 1.58931e-19)
(51.8554 8.58992 8.78899e-23)
(52.0205 8.43967 8.15833e-20)
(52.2558 8.24966 -6.18645e-20)
(52.6001 8.00054 2.56874e-22)
(53.0315 7.73972 -9.0675e-22)
(53.495 7.56313 0)
(54.0085 7.42242 0)
(54.414 7.31735 -6.1948e-20)
(54.7437 7.2864 -4.68277e-20)
(55.0178 7.331 3.6424e-22)
(55.3193 7.40908 -1.69171e-23)
(55.6234 7.46085 -1.39569e-20)
(55.879 7.48915 8.85177e-22)
(56.112 7.50386 0)
(56.3161 7.4969 -2.11018e-20)
(56.5016 7.46594 7.71823e-20)
(56.6397 7.42348 -1.61679e-20)
(56.77 7.3733 0)
(56.8725 7.3114 3.8935e-20)
(56.9493 7.2438 -2.05949e-21)
(57.0035 7.17643 -4.90059e-20)
(57.0399 7.112 8.10649e-21)
(57.0648 7.05182 -4.63099e-21)
(57.0837 6.9959 5.19681e-21)
(57.1022 6.94051 -5.67585e-21)
(57.1355 6.93184 0)
(57.2398 6.59379 -2.52807e-21)
(51.3032 9.0475 4.36259e-23)
(51.304 9.04838 -1.09138e-22)
(51.3047 9.04836 -2.84086e-19)
(51.3055 9.0482 3.5949e-19)
(51.3066 9.0478 0)
(51.3077 9.04718 -4.11191e-19)
(51.3093 9.04623 1.62816e-19)
(51.3113 9.04479 1.92413e-21)
(51.3141 9.04271 -3.99674e-23)
(51.3181 9.03961 5.42185e-20)
(51.3234 9.03515 2.43262e-24)
(51.3307 9.02877 1.34428e-21)
(51.3409 9.01982 -5.06724e-20)
(51.3552 9.0072 8.28961e-20)
(51.3744 8.99006 -1.90787e-19)
(51.4014 8.96651 -1.83136e-19)
(51.4343 8.93587 -2.51146e-23)
(51.4805 8.89665 1.05765e-22)
(51.5427 8.84416 1.88714e-19)
(51.6197 8.77445 4.5094e-21)
(51.7184 8.68331 -3.79272e-23)
(51.8507 8.5626 -8.49195e-23)
(52.0144 8.40208 -8.72292e-20)
(52.2463 8.19781 0)
(52.5881 7.92929 -2.40944e-21)