/*--------------------------------*- C++ -*----------------------------------*\
| =========                 |                                                 |
| \\      /  F ield         | OpenFOAM: The Open Source CFD Toolbox           |
|  \\    /   O peration     | Version:  2406                                  |
|   \\  /    A nd           | Website:  www.openfoam.com                      |
|    \\/     M anipulation  |                                                 |
\*---------------------------------------------------------------------------*/
FoamFile
{
    version     2.0;
    format      ascii;
    arch        "LSB;label=32;scalar=64";
    class       volScalarField;
    location    "2.64e-05";
    object      p;
}
// * * * * * * * * * * * * * * * * * * * * * * * * * * * * * * * * * * * * * //

dimensions      [1 -1 -2 0 0 0 0];

internalField   nonuniform List<scalar> 
4000
(
99995.8
99996.4
99996.9
99997.3
99997.5
99997.7
99997.9
99998
99998.1
99998.2
99998.3
99998.4
99998.5
99998.5
99998.6
99998.7
99998.7
99998.8
99998.8
99998.8
99998.9
99998.9
99998.9
99999
99999
99999
99999.1
99999.1
99999.1
99999.1
99999.1
99999.1
99999.2
99999.2
99999.2
99999.2
99999.2
99999.2
99999.2
99999.2
99999.2
99999.2
99999.2
99999.2
99999.2
99999.2
99999.2
99999.2
99999.2
99999.2
99999.2
99999.2
99999.2
99999.2
99999.2
99999.2
99999.2
99999.2
99999.2
99999.1
99999.1
99999.1
99999.1
99999.1
99999
99999
99999
99999
99998.9
99998.9
99998.9
99998.9
99998.8
99998.8
99998.7
99998.7
99998.6
99998.6
99998.5
99998.5
99998.4
99998.3
99998.3
99998.2
99998.1
99998
99997.9
99997.8
99997.7
99997.5
99997.4
99997.2
99997
99996.8
99996.5
99996.2
99995.8
99995.3
99994.6
99994.1
99974.4
99976.6
99979.1
99981.2
99982.9
99984.4
99985.6
99986.7
99987.6
99988.4
99989.1
99989.7
99990.3
99990.8
99991.3
99991.7
99992.1
99992.5
99992.8
99993.2
99993.4
99993.7
99994
99994.2
99994.4
99994.6
99994.8
99995
99995.2
99995.3
99995.4
99995.6
99995.7
99995.8
99995.9
99996
99996.1
99996.1
99996.2
99996.3
99996.3
99996.4
99996.4
99996.4
99996.4
99996.5
99996.5
99996.5
99996.5
99996.5
99996.4
99996.4
99996.4
99996.3
99996.3
99996.2
99996.2
99996.1
99996
99995.9
99995.8
99995.7
99995.6
99995.5
99995.4
99995.2
99995.1
99994.9
99994.7
99994.5
99994.3
99994.1
99993.8
99993.6
99993.3
99993
99992.7
99992.4
99992
99991.6
99991.2
99990.7
99990.3
99989.7
99989.2
99988.5
99987.9
99987.1
99986.3
99985.4
99984.4
99983.2
99981.9
99980.4
99978.7
99976.6
99974.1
99971
99967.5
99964.6
99957.8
99960.3
99963.5
99966.5
99969.2
99971.5
99973.6
99975.4
99977
99978.4
99979.7
99980.9
99981.9
99982.9
99983.8
99984.6
99985.4
99986.1
99986.7
99987.3
99987.9
99988.4
99988.9
99989.3
99989.7
99990.1
99990.5
99990.8
99991.1
99991.4
99991.7
99991.9
99992.1
99992.4
99992.5
99992.7
99992.9
99993
99993.1
99993.3
99993.3
99993.4
99993.5
99993.6
99993.6
99993.6
99993.6
99993.6
99993.6
99993.6
99993.6
99993.5
99993.5
99993.4
99993.3
99993.2
99993.1
99992.9
99992.8
99992.6
99992.4
99992.2
99992
99991.8
99991.5
99991.2
99990.9
99990.6
99990.3
99989.9
99989.5
99989.1
99988.6
99988.2
99987.6
99987.1
99986.5
99985.8
99985.2
99984.4
99983.6
99982.8
99981.9
99980.9
99979.8
99978.6
99977.4
99976
99974.5
99972.8
99970.9
99968.9
99966.6
99964
99961.1
99957.8
99953.9
99949.6
99945
99941.5
99944.4
99947.2
99950.7
99954.1
99957.3
99960.2
99962.8
99965.1
99967.2
99969.2
99970.9
99972.5
99974
99975.4
99976.6
99977.8
99978.9
99979.9
99980.8
99981.7
99982.5
99983.2
99983.9
99984.5
99985.1
99985.7
99986.2
99986.7
99987.2
99987.6
99988
99988.3
99988.7
99989
99989.2
99989.5
99989.7
99989.9
99990.1
99990.3
99990.4
99990.5
99990.6
99990.7
99990.8
99990.8
99990.9
99990.9
99990.8
99990.8
99990.8
99990.7
99990.6
99990.5
99990.3
99990.2
99990
99989.8
99989.6
99989.3
99989.1
99988.8
99988.5
99988.1
99987.7
99987.3
99986.9
99986.4
99985.9
99985.4
99984.8
99984.2
99983.5
99982.8
99982.1
99981.2
99980.4
99979.5
99978.5
99977.4
99976.3
99975
99973.7
99972.3
99970.8
99969.1
99967.3
99965.4
99963.3
99961
99958.5
99955.7
99952.7
99949.3
99945.6
99941.5
99936.9
99931.9
99926.9
99923.1
99933.4
99936.2
99939.9
99943.6
99947.1
99950.3
99953.2
99956
99958.5
99960.8
99962.9
99964.9
99966.7
99968.4
99969.9
99971.4
99972.7
99974
99975.2
99976.3
99977.3
99978.2
99979.1
99979.9
99980.7
99981.4
99982.1
99982.7
99983.3
99983.9
99984.4
99984.8
99985.3
99985.7
99986
99986.4
99986.7
99986.9
99987.2
99987.4
99987.6
99987.7
99987.9
99988
99988
99988.1
99988.1
99988.1
99988.1
99988.1
99988
99987.9
99987.8
99987.6
99987.5
99987.2
99987
99986.8
99986.5
99986.1
99985.8
99985.4
99985
99984.5
99984.1
99983.5
99983
99982.3
99981.7
99981
99980.2
99979.4
99978.6
99977.7
99976.7
99975.6
99974.5
99973.3
99972.1
99970.7
99969.2
99967.7
99966
99964.2
99962.3
99960.2
99958
99955.6
99953
99950.2
99947.1
99943.8
99940.3
99936.4
99932.1
99927.5
99922.5
99917.2
99911.9
99908
99924.1
99927
99930.8
99934.6
99938.3
99941.7
99944.9
99947.9
99950.7
99953.2
99955.6
99957.9
99960
99961.9
99963.7
99965.4
99967
99968.5
99969.9
99971.2
99972.4
99973.5
99974.6
99975.6
99976.5
99977.4
99978.2
99979
99979.7
99980.3
99980.9
99981.5
99982
99982.5
99982.9
99983.3
99983.7
99984
99984.3
99984.6
99984.8
99985
99985.2
99985.3
99985.4
99985.5
99985.5
99985.5
99985.5
99985.4
99985.3
99985.2
99985.1
99984.9
99984.7
99984.4
99984.1
99983.8
99983.5
99983.1
99982.6
99982.2
99981.7
99981.1
99980.5
99979.9
99979.2
99978.4
99977.6
99976.8
99975.9
99974.9
99973.9
99972.8
99971.6
99970.3
99969
99967.5
99966
99964.4
99962.6
99960.8
99958.8
99956.7
99954.4
99952
99949.4
99946.6
99943.7
99940.5
99937
99933.3
99929.4
99925.1
99920.5
99915.6
99910.3
99904.8
99899.4
99895.4
99916.2
99919.1
99923
99926.9
99930.7
99934.3
99937.6
99940.8
99943.7
99946.5
99949.1
99951.6
99953.9
99956
99958.1
99960
99961.7
99963.4
99965
99966.5
99967.8
99969.1
99970.3
99971.5
99972.6
99973.6
99974.5
99975.4
99976.2
99976.9
99977.6
99978.3
99978.9
99979.5
99980
99980.4
99980.9
99981.2
99981.6
99981.9
99982.2
99982.4
99982.6
99982.7
99982.8
99982.9
99983
99983
99982.9
99982.9
99982.8
99982.6
99982.4
99982.2
99982
99981.7
99981.4
99981
99980.6
99980.1
99979.6
99979.1
99978.5
99977.8
99977.1
99976.4
99975.6
99974.7
99973.8
99972.8
99971.7
99970.6
99969.4
99968.1
99966.8
99965.3
99963.8
99962.1
99960.4
99958.5
99956.5
99954.4
99952.2
99949.8
99947.3
99944.5
99941.7
99938.6
99935.3
99931.8
99928.1
99924.1
99919.8
99915.3
99910.5
99905.3
99899.9
99894.2
99888.7
99884.7
99909.3
99912.3
99916.2
99920.2
99924.1
99927.8
99931.3
99934.5
99937.7
99940.6
99943.4
99946
99948.4
99950.7
99952.9
99955
99956.9
99958.8
99960.5
99962.1
99963.6
99965.1
99966.4
99967.7
99968.9
99970
99971
99972
99972.9
99973.8
99974.6
99975.3
99976
99976.6
99977.2
99977.7
99978.2
99978.6
99979
99979.3
99979.6
99979.9
99980.1
99980.3
99980.4
99980.5
99980.5
99980.5
99980.5
99980.4
99980.3
99980.2
99980
99979.7
99979.4
99979.1
99978.7
99978.3
99977.8
99977.3
99976.7
99976.1
99975.4
99974.7
99973.9
99973.1
99972.2
99971.2
99970.1
99969
99967.8
99966.6
99965.2
99963.8
99962.3
99960.7
99958.9
99957.1
99955.2
99953.1
99950.9
99948.6
99946.1
99943.5
99940.7
99937.8
99934.7
99931.4
99927.8
99924.1
99920.2
99916
99911.5
99906.8
99901.8
99896.5
99890.9
99885.1
99879.6
99875.5
99903.4
99906.4
99910.4
99914.4
99918.4
99922.1
99925.7
99929.1
99932.3
99935.3
99938.2
99941
99943.6
99946
99948.3
99950.5
99952.6
99954.5
99956.4
99958.1
99959.8
99961.3
99962.8
99964.2
99965.5
99966.7
99967.8
99968.9
99969.9
99970.8
99971.7
99972.5
99973.2
99973.9
99974.6
99975.1
99975.7
99976.1
99976.6
99976.9
99977.3
99977.6
99977.8
99978
99978.1
99978.2
99978.3
99978.3
99978.2
99978.1
99978
99977.8
99977.6
99977.3
99977
99976.7
99976.2
99975.8
99975.2
99974.7
99974
99973.3
99972.6
99971.8
99970.9
99970
99969
99967.9
99966.8
99965.5
99964.2
99962.8
99961.4
99959.8
99958.1
99956.4
99954.5
99952.5
99950.4
99948.2
99945.8
99943.3
99940.7
99937.9
99934.9
99931.8
99928.5
99925
99921.3
99917.3
99913.2
99908.8
99904.2
99899.4
99894.3
99888.9
99883.2
99877.4
99871.7
99867.6
99898.3
99901.3
99905.3
99909.4
99913.4
99917.2
99920.8
99924.3
99927.6
99930.7
99933.7
99936.5
99939.2
99941.8
99944.2
99946.5
99948.7
99950.8
99952.7
99954.5
99956.3
99957.9
99959.5
99961
99962.4
99963.7
99964.9
99966
99967.1
99968.1
99969
99969.9
99970.7
99971.5
99972.1
99972.8
99973.3
99973.8
99974.3
99974.7
99975.1
99975.4
99975.6
99975.8
99976
99976.1
99976.1
99976.1
99976.1
99976
99975.9
99975.7
99975.4
99975.1
99974.8
99974.4
99973.9
99973.4
99972.8
99972.2
99971.5
99970.8
99970
99969.1
99968.2
99967.1
99966
99964.9
99963.6
99962.3
99960.9
99959.4
99957.8
99956.1
99954.4
99952.5
99950.5
99948.3
99946.1
99943.7
99941.2
99938.6
99935.8
99932.8
99929.7
99926.4
99923
99919.3
99915.5
99911.4
99907.1
99902.6
99897.9
99893
99887.7
99882.3
99876.5
99870.6
99865
99860.9
99893.9
99896.9
99900.9
99905.1
99909.1
99912.9
99916.6
99920.1
99923.5
99926.7
99929.8
99932.7
99935.4
99938.1
99940.6
99943
99945.2
99947.4
99949.4
99951.3
99953.2
99954.9
99956.5
99958.1
99959.5
99960.9
99962.2
99963.4
99964.6
99965.6
99966.6
99967.5
99968.4
99969.2
99969.9
99970.6
99971.2
99971.7
99972.2
99972.7
99973
99973.4
99973.6
99973.8
99974
99974.1
99974.2
99974.2
99974.1
99974
99973.9
99973.7
99973.4
99973.1
99972.7
99972.3
99971.8
99971.2
99970.6
99970
99969.2
99968.4
99967.6
99966.6
99965.6
99964.5
99963.4
99962.1
99960.8
99959.4
99957.9
99956.3
99954.6
99952.8
99950.9
99948.9
99946.8
99944.6
99942.2
99939.7
99937.1
99934.3
99931.4
99928.3
99925.1
99921.7
99918.1
99914.3
99910.4
99906.2
99901.9
99897.3
99892.4
99887.4
99882.1
99876.6
99870.8
99864.9
99859.2
99855.1
99890.2
99893.1
99897.2
99901.3
99905.4
99909.2
99913
99916.5
99919.9
99923.2
99926.3
99929.3
99932.1
99934.8
99937.4
99939.8
99942.2
99944.4
99946.5
99948.5
99950.4
99952.2
99953.9
99955.5
99957
99958.5
99959.8
99961.1
99962.3
99963.4
99964.4
99965.4
99966.3
99967.1
99967.9
99968.6
99969.2
99969.8
99970.3
99970.8
99971.2
99971.5
99971.8
99972
99972.2
99972.3
99972.4
99972.4
99972.3
99972.2
99972.1
99971.8
99971.6
99971.2
99970.8
99970.4
99969.8
99969.3
99968.6
99967.9
99967.1
99966.3
99965.4
99964.4
99963.3
99962.2
99960.9
99959.6
99958.2
99956.8
99955.2
99953.5
99951.7
99949.9
99947.9
99945.8
99943.6
99941.3
99938.8
99936.2
99933.5
99930.6
99927.6
99924.4
99921.1
99917.6
99913.9
99910
99906
99901.7
99897.3
99892.6
99887.7
99882.6
99877.3
99871.7
99865.9
99859.9
99854.2
99850.1
99886.9
99889.9
99893.9
99898.1
99902.2
99906.1
99909.8
99913.4
99916.9
99920.2
99923.3
99926.4
99929.2
99932
99934.6
99937.1
99939.5
99941.8
99943.9
99946
99948
99949.8
99951.6
99953.2
99954.8
99956.3
99957.7
99959
99960.2
99961.4
99962.5
99963.5
99964.4
99965.3
99966.1
99966.8
99967.5
99968.1
99968.6
99969.1
99969.5
99969.9
99970.2
99970.4
99970.6
99970.7
99970.8
99970.8
99970.7
99970.6
99970.4
99970.2
99969.9
99969.5
99969.1
99968.6
99968.1
99967.5
99966.8
99966.1
99965.3
99964.4
99963.4
99962.4
99961.3
99960.1
99958.8
99957.4
99956
99954.4
99952.8
99951
99949.2
99947.3
99945.2
99943
99940.7
99938.3
99935.8
99933.1
99930.3
99927.4
99924.3
99921
99917.6
99914
99910.2
99906.3
99902.2
99897.9
99893.3
99888.6
99883.7
99878.5
99873.1
99867.5
99861.7
99855.7
99850
99845.9
99884.2
99887.2
99891.2
99895.4
99899.5
99903.4
99907.2
99910.8
99914.3
99917.6
99920.8
99923.9
99926.8
99929.6
99932.2
99934.8
99937.2
99939.5
99941.7
99943.8
99945.8
99947.7
99949.5
99951.3
99952.9
99954.4
99955.8
99957.2
99958.5
99959.7
99960.8
99961.8
99962.8
99963.7
99964.5
99965.3
99966
99966.6
99967.1
99967.6
99968.1
99968.4
99968.7
99969
99969.2
99969.3
99969.4
99969.4
99969.3
99969.2
99969
99968.8
99968.4
99968.1
99967.6
99967.1
99966.6
99965.9
99965.2
99964.5
99963.6
99962.7
99961.7
99960.6
99959.5
99958.2
99956.9
99955.5
99954
99952.4
99950.7
99948.9
99947
99945
99942.9
99940.6
99938.3
99935.8
99933.2
99930.5
99927.6
99924.6
99921.4
99918.1
99914.6
99911
99907.1
99903.1
99899
99894.6
99890
99885.3
99880.3
99875.1
99869.7
99864
99858.2
99852.2
99846.5
99842.3
99881.9
99884.9
99888.9
99893.1
99897.2
99901.2
99905
99908.6
99912.1
99915.5
99918.7
99921.8
99924.7
99927.5
99930.2
99932.8
99935.3
99937.6
99939.9
99942
99944.1
99946
99947.8
99949.6
99951.2
99952.8
99954.3
99955.6
99956.9
99958.2
99959.3
99960.4
99961.4
99962.3
99963.2
99963.9
99964.6
99965.3
99965.9
99966.4
99966.8
99967.2
99967.5
99967.8
99967.9
99968.1
99968.1
99968.1
99968.1
99967.9
99967.8
99967.5
99967.2
99966.8
99966.3
99965.8
99965.2
99964.6
99963.9
99963.1
99962.2
99961.2
99960.2
99959.1
99957.9
99956.6
99955.3
99953.8
99952.3
99950.6
99948.9
99947
99945.1
99943
99940.9
99938.6
99936.2
99933.7
99931
99928.2
99925.3
99922.2
99919
99915.6
99912.1
99908.4
99904.5
99900.5
99896.3
99891.8
99887.2
99882.4
99877.4
99872.2
99866.8
99861.1
99855.2
99849.2
99843.5
99839.4
99880.1
99883.1
99887.1
99891.3
99895.4
99899.4
99903.2
99906.8
99910.3
99913.7
99916.9
99920
99923
99925.9
99928.6
99931.2
99933.7
99936.1
99938.4
99940.5
99942.6
99944.6
99946.4
99948.2
99949.9
99951.4
99952.9
99954.4
99955.7
99956.9
99958.1
99959.2
99960.2
99961.2
99962
99962.8
99963.5
99964.2
99964.8
99965.3
99965.8
99966.1
99966.5
99966.7
99966.9
99967
99967.1
99967.1
99967
99966.9
99966.7
99966.5
99966.1
99965.7
99965.3
99964.7
99964.1
99963.5
99962.7
99961.9
99961
99960
99959
99957.8
99956.6
99955.3
99953.9
99952.4
99950.9
99949.2
99947.4
99945.5
99943.5
99941.4
99939.2
99936.9
99934.5
99931.9
99929.2
99926.4
99923.4
99920.3
99917
99913.6
99910
99906.3
99902.4
99898.3
99894.1
99889.6
99885
99880.2
99875.1
99869.9
99864.4
99858.7
99852.9
99846.8
99841.1
99837
99878.6
99881.6
99885.7
99889.9
99894
99897.9
99901.7
99905.4
99908.9
99912.3
99915.6
99918.7
99921.7
99924.6
99927.3
99929.9
99932.5
99934.9
99937.1
99939.3
99941.4
99943.4
99945.3
99947.1
99948.8
99950.4
99951.9
99953.3
99954.7
99955.9
99957.1
99958.2
99959.3
99960.2
99961.1
99961.9
99962.7
99963.3
99963.9
99964.4
99964.9
99965.3
99965.6
99965.9
99966.1
99966.2
99966.3
99966.3
99966.2
99966.1
99965.9
99965.6
99965.3
99964.9
99964.4
99963.9
99963.2
99962.6
99961.8
99961
99960
99959.1
99958
99956.8
99955.6
99954.3
99952.8
99951.3
99949.7
99948
99946.2
99944.3
99942.3
99940.2
99937.9
99935.6
99933.1
99930.5
99927.8
99924.9
99921.9
99918.8
99915.5
99912
99908.4
99904.6
99900.7
99896.6
99892.3
99887.9
99883.2
99878.4
99873.3
99868
99862.6
99856.9
99851
99845
99839.3
99835.1
99877.5
99880.5
99884.6
99888.8
99892.9
99896.9
99900.7
99904.4
99907.9
99911.3
99914.6
99917.7
99920.7
99923.6
99926.3
99929
99931.5
99933.9
99936.2
99938.4
99940.5
99942.5
99944.4
99946.3
99948
99949.6
99951.1
99952.6
99953.9
99955.2
99956.4
99957.5
99958.6
99959.5
99960.4
99961.2
99962
99962.7
99963.3
99963.8
99964.3
99964.7
99965
99965.3
99965.5
99965.6
99965.7
99965.7
99965.6
99965.5
99965.2
99965
99964.6
99964.2
99963.7
99963.2
99962.6
99961.9
99961.1
99960.3
99959.3
99958.3
99957.2
99956.1
99954.8
99953.5
99952
99950.5
99948.9
99947.2
99945.3
99943.4
99941.4
99939.2
99937
99934.6
99932.1
99929.5
99926.7
99923.8
99920.8
99917.6
99914.3
99910.8
99907.2
99903.4
99899.5
99895.4
99891.1
99886.6
99881.9
99877
99872
99866.7
99861.2
99855.5
99849.6
99843.6
99837.9
99833.7
99876.8
99879.8
99883.9
99888.1
99892.2
99896.2
99900
99903.7
99907.2
99910.6
99913.9
99917
99920.1
99922.9
99925.7
99928.4
99930.9
99933.3
99935.6
99937.9
99940
99942
99943.9
99945.7
99947.4
99949.1
99950.6
99952.1
99953.4
99954.7
99955.9
99957.1
99958.1
99959.1
99960
99960.8
99961.5
99962.2
99962.8
99963.4
99963.8
99964.2
99964.6
99964.8
99965
99965.2
99965.2
99965.2
99965.2
99965
99964.8
99964.6
99964.2
99963.8
99963.3
99962.8
99962.1
99961.4
99960.6
99959.8
99958.9
99957.8
99956.7
99955.6
99954.3
99952.9
99951.5
99949.9
99948.3
99946.6
99944.7
99942.8
99940.7
99938.6
99936.3
99933.9
99931.4
99928.8
99926
99923.1
99920
99916.9
99913.5
99910.1
99906.4
99902.6
99898.7
99894.5
99890.2
99885.7
99881
99876.2
99871.1
99865.8
99860.3
99854.6
99848.7
99842.7
99837
99832.8
99876.5
99879.5
99883.5
99887.7
99891.9
99895.8
99899.7
99903.3
99906.9
99910.3
99913.6
99916.7
99919.7
99922.6
99925.4
99928.1
99930.6
99933
99935.4
99937.6
99939.7
99941.7
99943.6
99945.4
99947.2
99948.8
99950.3
99951.8
99953.2
99954.5
99955.7
99956.8
99957.9
99958.8
99959.7
99960.6
99961.3
99962
99962.6
99963.2
99963.6
99964
99964.4
99964.6
99964.8
99965
99965
99965
99965
99964.8
99964.6
99964.3
99964
99963.6
99963.1
99962.5
99961.9
99961.2
99960.4
99959.6
99958.6
99957.6
99956.5
99955.3
99954
99952.7
99951.2
99949.7
99948
99946.3
99944.4
99942.5
99940.4
99938.3
99936
99933.6
99931.1
99928.4
99925.6
99922.7
99919.7
99916.5
99913.2
99909.7
99906
99902.2
99898.2
99894.1
99889.8
99885.3
99880.6
99875.7
99870.7
99865.4
99859.9
99854.2
99848.3
99842.3
99836.5
99832.4
99876.5
99879.5
99883.5
99887.7
99891.9
99895.8
99899.7
99903.3
99906.9
99910.3
99913.6
99916.7
99919.7
99922.6
99925.4
99928.1
99930.6
99933
99935.4
99937.6
99939.7
99941.7
99943.6
99945.4
99947.2
99948.8
99950.3
99951.8
99953.2
99954.5
99955.7
99956.8
99957.9
99958.8
99959.7
99960.6
99961.3
99962
99962.6
99963.2
99963.6
99964
99964.4
99964.6
99964.8
99965
99965
99965
99965
99964.8
99964.6
99964.3
99964
99963.6
99963.1
99962.5
99961.9
99961.2
99960.4
99959.6
99958.6
99957.6
99956.5
99955.3
99954
99952.7
99951.2
99949.7
99948
99946.3
99944.4
99942.5
99940.4
99938.3
99936
99933.6
99931.1
99928.4
99925.6
99922.7
99919.7
99916.5
99913.2
99909.7
99906
99902.2
99898.2
99894.1
99889.8
99885.3
99880.6
99875.7
99870.7
99865.4
99859.9
99854.2
99848.3
99842.3
99836.5
99832.4
99876.8
99879.8
99883.9
99888.1
99892.2
99896.2
99900
99903.7
99907.2
99910.6
99913.9
99917
99920.1
99922.9
99925.7
99928.4
99930.9
99933.3
99935.6
99937.9
99940
99942
99943.9
99945.7
99947.4
99949.1
99950.6
99952.1
99953.4
99954.7
99955.9
99957.1
99958.1
99959.1
99960
99960.8
99961.5
99962.2
99962.8
99963.4
99963.8
99964.2
99964.6
99964.8
99965
99965.2
99965.2
99965.2
99965.2
99965
99964.8
99964.6
99964.2
99963.8
99963.3
99962.8
99962.1
99961.4
99960.6
99959.8
99958.9
99957.8
99956.7
99955.6
99954.3
99952.9
99951.5
99949.9
99948.3
99946.6
99944.7
99942.8
99940.7
99938.6
99936.3
99933.9
99931.4
99928.8
99926
99923.1
99920
99916.9
99913.5
99910.1
99906.4
99902.6
99898.7
99894.5
99890.2
99885.7
99881
99876.2
99871.1
99865.8
99860.3
99854.6
99848.7
99842.7
99837
99832.8
99877.5
99880.5
99884.6
99888.8
99892.9
99896.9
99900.7
99904.4
99907.9
99911.3
99914.6
99917.7
99920.7
99923.6
99926.3
99929
99931.5
99933.9
99936.2
99938.4
99940.5
99942.5
99944.4
99946.3
99948
99949.6
99951.1
99952.6
99953.9
99955.2
99956.4
99957.5
99958.6
99959.5
99960.4
99961.2
99962
99962.7
99963.3
99963.8
99964.3
99964.7
99965
99965.3
99965.5
99965.6
99965.7
99965.7
99965.6
99965.5
99965.2
99965
99964.6
99964.2
99963.7
99963.2
99962.6
99961.9
99961.1
99960.3
99959.3
99958.3
99957.2
99956.1
99954.8
99953.5
99952
99950.5
99948.9
99947.2
99945.3
99943.4
99941.4
99939.2
99937
99934.6
99932.1
99929.5
99926.7
99923.8
99920.8
99917.6
99914.3
99910.8
99907.2
99903.4
99899.5
99895.4
99891.1
99886.6
99881.9
99877
99872
99866.7
99861.2
99855.5
99849.6
99843.6
99837.9
99833.7
99878.6
99881.6
99885.7
99889.9
99894
99897.9
99901.7
99905.4
99908.9
99912.3
99915.6
99918.7
99921.7
99924.6
99927.3
99929.9
99932.5
99934.9
99937.1
99939.3
99941.4
99943.4
99945.3
99947.1
99948.8
99950.4
99951.9
99953.3
99954.7
99955.9
99957.1
99958.2
99959.3
99960.2
99961.1
99961.9
99962.7
99963.3
99963.9
99964.4
99964.9
99965.3
99965.6
99965.9
99966.1
99966.2
99966.3
99966.3
99966.2
99966.1
99965.9
99965.6
99965.3
99964.9
99964.4
99963.9
99963.2
99962.6
99961.8
99961
99960
99959.1
99958
99956.8
99955.6
99954.3
99952.8
99951.3
99949.7
99948
99946.2
99944.3
99942.3
99940.2
99937.9
99935.6
99933.1
99930.5
99927.8
99924.9
99921.9
99918.8
99915.5
99912
99908.4
99904.6
99900.7
99896.6
99892.3
99887.9
99883.2
99878.4
99873.3
99868
99862.6
99856.9
99851
99845
99839.3
99835.1
99880.1
99883.1
99887.1
99891.3
99895.4
99899.4
99903.2
99906.8
99910.3
99913.7
99916.9
99920
99923
99925.9
99928.6
99931.2
99933.7
99936.1
99938.4
99940.5
99942.6
99944.6
99946.4
99948.2
99949.9
99951.4
99952.9
99954.4
99955.7
99956.9
99958.1
99959.2
99960.2
99961.2
99962
99962.8
99963.5
99964.2
99964.8
99965.3
99965.8
99966.1
99966.5
99966.7
99966.9
99967
99967.1
99967.1
99967
99966.9
99966.7
99966.5
99966.1
99965.7
99965.3
99964.7
99964.1
99963.5
99962.7
99961.9
99961
99960
99959
99957.8
99956.6
99955.3
99953.9
99952.4
99950.9
99949.2
99947.4
99945.5
99943.5
99941.4
99939.2
99936.9
99934.5
99931.9
99929.2
99926.4
99923.4
99920.3
99917
99913.6
99910
99906.3
99902.4
99898.3
99894.1
99889.6
99885
99880.2
99875.1
99869.9
99864.4
99858.7
99852.9
99846.8
99841.1
99837
99881.9
99884.9
99888.9
99893.1
99897.2
99901.2
99905
99908.6
99912.1
99915.5
99918.7
99921.8
99924.7
99927.5
99930.2
99932.8
99935.3
99937.6
99939.9
99942
99944.1
99946
99947.8
99949.6
99951.2
99952.8
99954.3
99955.6
99956.9
99958.2
99959.3
99960.4
99961.4
99962.3
99963.2
99963.9
99964.6
99965.3
99965.9
99966.4
99966.8
99967.2
99967.5
99967.8
99967.9
99968.1
99968.1
99968.1
99968.1
99967.9
99967.8
99967.5
99967.2
99966.8
99966.3
99965.8
99965.2
99964.6
99963.9
99963.1
99962.2
99961.2
99960.2
99959.1
99957.9
99956.6
99955.3
99953.8
99952.3
99950.6
99948.9
99947
99945.1
99943
99940.9
99938.6
99936.2
99933.7
99931
99928.2
99925.3
99922.2
99919
99915.6
99912.1
99908.4
99904.5
99900.5
99896.3
99891.8
99887.2
99882.4
99877.4
99872.2
99866.8
99861.1
99855.2
99849.2
99843.5
99839.4
99884.2
99887.2
99891.2
99895.4
99899.5
99903.4
99907.2
99910.8
99914.3
99917.6
99920.8
99923.9
99926.8
99929.6
99932.2
99934.8
99937.2
99939.5
99941.7
99943.8
99945.8
99947.7
99949.5
99951.3
99952.9
99954.4
99955.8
99957.2
99958.5
99959.7
99960.8
99961.8
99962.8
99963.7
99964.5
99965.3
99966
99966.6
99967.1
99967.6
99968.1
99968.4
99968.7
99969
99969.2
99969.3
99969.4
99969.4
99969.3
99969.2
99969
99968.8
99968.4
99968.1
99967.6
99967.1
99966.6
99965.9
99965.2
99964.5
99963.6
99962.7
99961.7
99960.6
99959.5
99958.2
99956.9
99955.5
99954
99952.4
99950.7
99948.9
99947
99945
99942.9
99940.6
99938.3
99935.8
99933.2
99930.5
99927.6
99924.6
99921.4
99918.1
99914.6
99911
99907.1
99903.1
99899
99894.6
99890
99885.3
99880.3
99875.1
99869.7
99864
99858.2
99852.2
99846.4
99842.3
99886.9
99889.9
99893.9
99898.1
99902.2
99906.1
99909.8
99913.4
99916.9
99920.2
99923.3
99926.4
99929.2
99932
99934.6
99937.1
99939.5
99941.8
99943.9
99946
99948
99949.8
99951.6
99953.2
99954.8
99956.3
99957.7
99959
99960.2
99961.4
99962.5
99963.5
99964.4
99965.3
99966.1
99966.8
99967.5
99968.1
99968.6
99969.1
99969.5
99969.9
99970.2
99970.4
99970.6
99970.7
99970.8
99970.8
99970.7
99970.6
99970.4
99970.2
99969.9
99969.5
99969.1
99968.6
99968.1
99967.5
99966.8
99966.1
99965.3
99964.4
99963.4
99962.4
99961.3
99960.1
99958.8
99957.4
99956
99954.4
99952.8
99951
99949.2
99947.3
99945.2
99943
99940.7
99938.3
99935.8
99933.1
99930.3
99927.4
99924.3
99921
99917.6
99914
99910.2
99906.3
99902.2
99897.9
99893.3
99888.6
99883.7
99878.5
99873.1
99867.5
99861.7
99855.7
99850
99845.9
99890.2
99893.1
99897.2
99901.3
99905.4
99909.2
99913
99916.5
99919.9
99923.2
99926.3
99929.3
99932.1
99934.8
99937.4
99939.8
99942.2
99944.4
99946.5
99948.5
99950.4
99952.2
99953.9
99955.5
99957
99958.5
99959.8
99961.1
99962.3
99963.4
99964.4
99965.4
99966.3
99967.1
99967.9
99968.6
99969.2
99969.8
99970.3
99970.8
99971.2
99971.5
99971.8
99972
99972.2
99972.3
99972.4
99972.4
99972.3
99972.2
99972.1
99971.8
99971.6
99971.2
99970.8
99970.4
99969.8
99969.3
99968.6
99967.9
99967.1
99966.3
99965.4
99964.4
99963.3
99962.2
99960.9
99959.6
99958.2
99956.8
99955.2
99953.5
99951.7
99949.9
99947.9
99945.8
99943.6
99941.3
99938.8
99936.2
99933.5
99930.6
99927.6
99924.4
99921.1
99917.6
99913.9
99910
99906
99901.7
99897.3
99892.6
99887.7
99882.6
99877.3
99871.7
99865.9
99859.9
99854.2
99850.1
99893.9
99896.9
99900.9
99905.1
99909.1
99912.9
99916.6
99920.1
99923.5
99926.7
99929.8
99932.7
99935.4
99938.1
99940.6
99943
99945.2
99947.4
99949.4
99951.3
99953.2
99954.9
99956.5
99958.1
99959.5
99960.9
99962.2
99963.4
99964.6
99965.6
99966.6
99967.5
99968.4
99969.2
99969.9
99970.6
99971.2
99971.7
99972.2
99972.7
99973
99973.4
99973.6
99973.8
99974
99974.1
99974.2
99974.2
99974.1
99974
99973.9
99973.7
99973.4
99973.1
99972.7
99972.3
99971.8
99971.2
99970.6
99970
99969.2
99968.4
99967.6
99966.6
99965.6
99964.5
99963.4
99962.1
99960.8
99959.4
99957.9
99956.3
99954.6
99952.8
99950.9
99948.9
99946.8
99944.6
99942.2
99939.7
99937.1
99934.3
99931.4
99928.3
99925.1
99921.7
99918.1
99914.3
99910.4
99906.2
99901.9
99897.3
99892.4
99887.4
99882.1
99876.6
99870.8
99864.9
99859.2
99855.1
99898.3
99901.3
99905.3
99909.4
99913.4
99917.2
99920.8
99924.3
99927.6
99930.7
99933.7
99936.5
99939.2
99941.8
99944.2
99946.5
99948.7
99950.8
99952.7
99954.5
99956.3
99957.9
99959.5
99961
99962.4
99963.7
99964.9
99966
99967.1
99968.1
99969
99969.9
99970.7
99971.5
99972.1
99972.8
99973.3
99973.8
99974.3
99974.7
99975.1
99975.4
99975.6
99975.8
99976
99976.1
99976.1
99976.1
99976.1
99976
99975.9
99975.7
99975.4
99975.1
99974.8
99974.4
99973.9
99973.4
99972.8
99972.2
99971.5
99970.8
99970
99969.1
99968.1
99967.1
99966
99964.9
99963.6
99962.3
99960.9
99959.4
99957.8
99956.1
99954.4
99952.5
99950.5
99948.3
99946.1
99943.7
99941.2
99938.6
99935.8
99932.8
99929.7
99926.4
99923
99919.3
99915.5
99911.4
99907.1
99902.6
99897.9
99893
99887.7
99882.3
99876.5
99870.6
99865
99860.9
99903.4
99906.4
99910.4
99914.4
99918.4
99922.1
99925.7
99929.1
99932.3
99935.3
99938.2
99941
99943.6
99946
99948.3
99950.5
99952.6
99954.5
99956.4
99958.1
99959.8
99961.3
99962.8
99964.2
99965.5
99966.7
99967.8
99968.9
99969.9
99970.8
99971.7
99972.5
99973.2
99973.9
99974.6
99975.1
99975.7
99976.1
99976.6
99976.9
99977.3
99977.6
99977.8
99978
99978.1
99978.2
99978.3
99978.3
99978.2
99978.1
99978
99977.8
99977.6
99977.3
99977
99976.7
99976.2
99975.8
99975.2
99974.7
99974
99973.3
99972.6
99971.8
99970.9
99970
99969
99967.9
99966.8
99965.5
99964.2
99962.8
99961.4
99959.8
99958.1
99956.4
99954.5
99952.5
99950.4
99948.2
99945.8
99943.3
99940.7
99937.9
99934.9
99931.8
99928.5
99925
99921.3
99917.3
99913.2
99908.8
99904.2
99899.4
99894.3
99888.9
99883.2
99877.4
99871.7
99867.6
99909.3
99912.3
99916.2
99920.2
99924.1
99927.8
99931.3
99934.5
99937.7
99940.6
99943.4
99946
99948.4
99950.7
99952.9
99955
99956.9
99958.8
99960.5
99962.1
99963.6
99965.1
99966.4
99967.7
99968.9
99970
99971
99972
99972.9
99973.8
99974.6
99975.3
99976
99976.6
99977.2
99977.7
99978.2
99978.6
99979
99979.3
99979.6
99979.9
99980.1
99980.3
99980.4
99980.5
99980.5
99980.5
99980.5
99980.4
99980.3
99980.2
99980
99979.7
99979.4
99979.1
99978.7
99978.3
99977.8
99977.3
99976.7
99976.1
99975.4
99974.7
99973.9
99973.1
99972.2
99971.2
99970.1
99969
99967.8
99966.6
99965.2
99963.8
99962.3
99960.7
99958.9
99957.1
99955.2
99953.1
99950.9
99948.6
99946.1
99943.5
99940.7
99937.8
99934.7
99931.4
99927.8
99924.1
99920.2
99916
99911.5
99906.8
99901.8
99896.5
99890.9
99885.1
99879.6
99875.5
99916.2
99919.1
99923
99926.9
99930.7
99934.3
99937.6
99940.8
99943.7
99946.5
99949.1
99951.6
99953.9
99956
99958.1
99960
99961.7
99963.4
99965
99966.5
99967.8
99969.1
99970.3
99971.5
99972.6
99973.6
99974.5
99975.4
99976.2
99976.9
99977.6
99978.3
99978.9
99979.5
99980
99980.4
99980.9
99981.2
99981.6
99981.9
99982.2
99982.4
99982.6
99982.7
99982.8
99982.9
99983
99983
99982.9
99982.9
99982.8
99982.6
99982.4
99982.2
99982
99981.7
99981.4
99981
99980.6
99980.1
99979.6
99979.1
99978.5
99977.8
99977.1
99976.4
99975.6
99974.7
99973.8
99972.8
99971.7
99970.6
99969.4
99968.1
99966.8
99965.3
99963.8
99962.1
99960.4
99958.5
99956.5
99954.4
99952.2
99949.8
99947.3
99944.5
99941.7
99938.6
99935.3
99931.8
99928.1
99924.1
99919.8
99915.3
99910.5
99905.3
99899.9
99894.2
99888.7
99884.7
99924.1
99927
99930.8
99934.6
99938.3
99941.7
99944.9
99947.9
99950.7
99953.2
99955.6
99957.9
99960
99961.9
99963.7
99965.4
99967
99968.5
99969.9
99971.2
99972.4
99973.5
99974.6
99975.6
99976.5
99977.4
99978.2
99979
99979.7
99980.3
99980.9
99981.5
99982
99982.5
99982.9
99983.3
99983.7
99984
99984.3
99984.6
99984.8
99985
99985.2
99985.3
99985.4
99985.5
99985.5
99985.5
99985.5
99985.4
99985.3
99985.2
99985.1
99984.9
99984.7
99984.4
99984.1
99983.8
99983.5
99983.1
99982.6
99982.2
99981.7
99981.1
99980.5
99979.9
99979.2
99978.4
99977.6
99976.8
99975.9
99974.9
99973.9
99972.8
99971.6
99970.3
99969
99967.5
99966
99964.4
99962.6
99960.8
99958.8
99956.7
99954.4
99952
99949.4
99946.6
99943.7
99940.5
99937
99933.3
99929.4
99925.1
99920.5
99915.6
99910.3
99904.8
99899.4
99895.4
99933.4
99936.2
99939.9
99943.6
99947.1
99950.3
99953.2
99956
99958.5
99960.8
99962.9
99964.9
99966.7
99968.4
99969.9
99971.4
99972.7
99974
99975.2
99976.3
99977.3
99978.2
99979.1
99979.9
99980.7
99981.4
99982.1
99982.7
99983.3
99983.9
99984.4
99984.8
99985.3
99985.7
99986
99986.4
99986.7
99986.9
99987.2
99987.4
99987.6
99987.7
99987.9
99988
99988
99988.1
99988.1
99988.1
99988.1
99988.1
99988
99987.9
99987.8
99987.6
99987.5
99987.2
99987
99986.8
99986.5
99986.1
99985.8
99985.4
99985
99984.5
99984.1
99983.5
99983
99982.3
99981.7
99981
99980.2
99979.4
99978.6
99977.7
99976.7
99975.6
99974.5
99973.3
99972.1
99970.7
99969.2
99967.7
99966
99964.2
99962.3
99960.2
99958
99955.6
99953
99950.2
99947.1
99943.8
99940.3
99936.4
99932.1
99927.5
99922.5
99917.2
99911.9
99908
99944.4
99947.2
99950.7
99954.1
99957.3
99960.2
99962.8
99965.1
99967.2
99969.2
99970.9
99972.5
99974
99975.4
99976.6
99977.8
99978.9
99979.9
99980.8
99981.7
99982.5
99983.2
99983.9
99984.5
99985.1
99985.7
99986.2
99986.7
99987.2
99987.6
99988
99988.3
99988.7
99989
99989.2
99989.5
99989.7
99989.9
99990.1
99990.3
99990.4
99990.5
99990.6
99990.7
99990.8
99990.8
99990.9
99990.9
99990.8
99990.8
99990.8
99990.7
99990.6
99990.5
99990.3
99990.2
99990
99989.8
99989.6
99989.3
99989.1
99988.8
99988.5
99988.1
99987.7
99987.3
99986.9
99986.4
99985.9
99985.4
99984.8
99984.2
99983.5
99982.8
99982.1
99981.2
99980.4
99979.5
99978.5
99977.4
99976.3
99975
99973.7
99972.3
99970.8
99969.1
99967.3
99965.4
99963.3
99961
99958.5
99955.7
99952.7
99949.3
99945.6
99941.5
99936.9
99931.9
99926.9
99923.1
99957.8
99960.3
99963.5
99966.5
99969.2
99971.5
99973.6
99975.4
99977
99978.4
99979.7
99980.9
99981.9
99982.9
99983.8
99984.6
99985.4
99986.1
99986.7
99987.3
99987.9
99988.4