/*--------------------------------*- C++ -*----------------------------------*\
| =========                 |                                                 |
| \\      /  F ield         | OpenFOAM: The Open Source CFD Toolbox           |
|  \\    /   O peration     | Version:  2406                                  |
|   \\  /    A nd           | Website:  www.openfoam.com                      |
|    \\/     M anipulation  |                                                 |
\*---------------------------------------------------------------------------*/
FoamFile
{
    version     2.0;
    format      ascii;
    arch        "LSB;label=32;scalar=64";
    class       surfaceScalarField;
    location    "2.64e-05";
    object      phi;
}
// * * * * * * * * * * * * * * * * * * * * * * * * * * * * * * * * * * * * * //

dimensions      [1 0 -1 0 0 0 0];

oriented        oriented;

internalField   nonuniform List<scalar> 
7860
(
-1.27833e-07
1.41638e-06
-1.3633e-07
1.11193e-06
-9.37218e-08
9.78649e-07
-7.35165e-08
8.74642e-07
-6.22135e-08
7.89755e-07
-5.373e-08
7.19714e-07
-4.67494e-08
6.6086e-07
-4.10305e-08
6.10449e-07
-3.63227e-08
5.6658e-07
-3.24213e-08
5.2791e-07
-2.91518e-08
4.93469e-07
-2.63757e-08
4.62541e-07
-2.39853e-08
4.34576e-07
-2.19103e-08
4.09146e-07
-2.00901e-08
3.85912e-07
-1.84779e-08
3.64601e-07
-1.70363e-08
3.44988e-07
-1.57348e-08
3.26885e-07
-1.45739e-08
3.10134e-07
-1.35127e-08
2.9461e-07
-1.25396e-08
2.80197e-07
-1.16445e-08
2.66797e-07
-1.0818e-08
2.54322e-07
-1.00517e-08
2.42699e-07
-9.33837e-09
2.3186e-07
-8.67181e-09
2.2175e-07
-8.04669e-09
2.12315e-07
-7.45841e-09
2.03511e-07
-6.90297e-09
1.95297e-07
-6.37685e-09
1.87637e-07
-5.8769e-09
1.80498e-07
-5.40032e-09
1.73851e-07
-4.94462e-09
1.6767e-07
-4.50758e-09
1.6193e-07
-4.08719e-09
1.56612e-07
-3.68163e-09
1.51695e-07
-3.28923e-09
1.47162e-07
-2.90843e-09
1.42998e-07
-2.5378e-09
1.39188e-07
-2.17605e-09
1.35721e-07
-1.822e-09
1.32585e-07
-1.47462e-09
1.29771e-07
-1.13321e-09
1.27268e-07
-7.96342e-10
1.25066e-07
-4.61665e-10
1.23155e-07
-1.27809e-10
1.21533e-07
2.05805e-10
1.20202e-07
5.39994e-10
1.19161e-07
8.75649e-10
1.18407e-07
1.21369e-09
1.17942e-07
1.55506e-09
1.17764e-07
1.90074e-09
1.17877e-07
2.25174e-09
1.18282e-07
2.60909e-09
1.18982e-07
2.97387e-09
1.19982e-07
3.34723e-09
1.21286e-07
3.73033e-09
1.22902e-07
4.12441e-09
1.24837e-07
4.53079e-09
1.27099e-07
4.95088e-09
1.29698e-07
5.38617e-09
1.32644e-07
5.83829e-09
1.3595e-07
6.30897e-09
1.39631e-07
6.80015e-09
1.437e-07
7.31389e-09
1.48176e-07
7.85246e-09
1.53077e-07
8.41837e-09
1.58423e-07
9.01439e-09
1.64239e-07
9.64357e-09
1.7055e-07
1.03094e-08
1.77383e-07
1.10157e-08
1.84771e-07
1.17668e-08
1.92747e-07
1.25678e-08
2.01351e-07
1.34242e-08
2.10624e-07
1.43424e-08
2.20615e-07
1.53301e-08
2.31377e-07
1.63957e-08
2.42969e-07
1.75494e-08
2.55458e-07
1.88032e-08
2.6892e-07
2.0171e-08
2.83442e-07
2.16698e-08
2.99121e-07
2.33199e-08
3.16069e-07
2.51461e-08
3.34418e-07
2.71789e-08
3.54318e-07
2.94562e-08
3.75947e-07
3.20259e-08
3.99516e-07
3.49492e-08
4.25277e-07
3.8305e-08
4.53539e-07
4.21959e-08
4.84678e-07
4.67553e-08
5.19171e-07
5.21533e-08
5.57625e-07
5.86181e-08
6.00842e-07
6.62718e-08
6.49895e-07
7.51073e-08
7.06323e-07
8.45357e-08
7.72346e-07
9.33065e-08
8.5125e-07
1.01218e-07
9.47678e-07
1.04929e-07
1.06775e-06
-4.43605e-08
1.22832e-06
1.6599e-06
-6.88972e-07
1.06572e-06
-8.1514e-07
8.37728e-07
-6.96211e-07
7.77728e-07
-5.69389e-07
7.32378e-07
-4.71055e-07
6.87354e-07
-3.97616e-07
6.43228e-07
-3.41852e-07
6.01351e-07
-2.98275e-07
5.62378e-07
-2.63372e-07
5.26448e-07
-2.34804e-07
4.93447e-07
-2.1099e-07
4.63161e-07
-1.9083e-07
4.35346e-07
-1.73548e-07
4.09759e-07
-1.5855e-07
3.86181e-07
-1.45408e-07
3.6441e-07
-1.33794e-07
3.4427e-07
-1.23457e-07
3.25605e-07
-1.14193e-07
3.08279e-07
-1.05804e-07
2.92175e-07
-9.8199e-08
2.77181e-07
-9.12718e-08
2.63207e-07
-8.49328e-08
2.50172e-07
-7.91071e-08
2.38004e-07
-7.37317e-08
2.26639e-07
-6.87529e-08
2.16021e-07
-6.41253e-08
2.06097e-07
-5.98098e-08
1.96823e-07
-5.57727e-08
1.88157e-07
-5.19846e-08
1.80062e-07
-4.84195e-08
1.72505e-07
-4.50544e-08
1.65457e-07
-4.18689e-08
1.5889e-07
-3.88451e-08
1.52779e-07
-3.59667e-08
1.47102e-07
-3.32193e-08
1.4184e-07
-3.05899e-08
1.36974e-07
-2.80663e-08
1.32488e-07
-2.56376e-08
1.28368e-07
-2.32939e-08
1.246e-07
-2.10262e-08
1.21172e-07
-1.88266e-08
1.18075e-07
-1.6688e-08
1.15298e-07
-1.46045e-08
1.12834e-07
-1.25647e-08
1.10666e-07
-1.0552e-08
1.08779e-07
-8.55569e-09
1.07178e-07
-6.57098e-09
1.0587e-07
-4.59258e-09
1.04852e-07
-2.61495e-09
1.04123e-07
-6.3228e-10
1.03683e-07
1.36143e-09
1.03532e-07
3.37244e-09
1.03671e-07
5.40723e-09
1.04103e-07
7.47252e-09
1.04831e-07
9.57529e-09
1.05859e-07
1.17228e-08
1.07192e-07
1.39224e-08
1.08836e-07
1.61822e-08
1.10799e-07
1.85105e-08
1.13089e-07
2.09161e-08
1.15714e-07
2.34086e-08
1.18687e-07
2.59981e-08
1.22018e-07
2.86959e-08
1.25721e-07
3.15137e-08
1.29812e-07
3.44647e-08
1.34305e-07
3.7563e-08
1.3922e-07
4.08243e-08
1.44576e-07
4.42656e-08
1.50396e-07
4.79063e-08
1.56703e-07
5.17674e-08
1.63524e-07
5.58731e-08
1.7089e-07
6.02501e-08
1.78832e-07
6.49291e-08
1.87385e-07
6.99446e-08
1.96591e-07
7.53363e-08
2.06491e-07
8.115e-08
2.17136e-07
8.74383e-08
2.28578e-07
9.42631e-08
2.40878e-07
1.01697e-07
2.54102e-07
1.09824e-07
2.68325e-07
1.18749e-07
2.83632e-07
1.28593e-07
3.00116e-07
1.39505e-07
3.17884e-07
1.51672e-07
3.37058e-07
1.65322e-07
3.57774e-07
1.80742e-07
3.80187e-07
1.98307e-07
4.04477e-07
2.18499e-07
4.30842e-07
2.41964e-07
4.5951e-07
2.69583e-07
4.90732e-07
3.02585e-07
5.24777e-07
3.42723e-07
5.61912e-07
3.9275e-07
6.02361e-07
4.56735e-07
6.46188e-07
5.40994e-07
6.93108e-07
6.54052e-07
7.42144e-07
7.9907e-07
7.91473e-07
9.24362e-07
8.41082e-07
7.05022e-07
9.16045e-07
1.26559e-06
-8.23785e-07
8.48762e-07
-1.05662e-06
6.70039e-07
-9.87756e-07
6.32408e-07
-8.70925e-07
6.0897e-07
-7.62091e-07
5.84748e-07
-6.69653e-07
5.58715e-07
-5.924e-07
5.31796e-07
-5.27701e-07
5.04883e-07
-4.73128e-07
4.78586e-07
-4.26693e-07
4.53276e-07
-3.86825e-07
4.29154e-07
-3.52298e-07
4.06311e-07
-3.22146e-07
3.84768e-07
-2.95614e-07
3.64504e-07
-2.72099e-07
3.45473e-07
-2.51122e-07
3.27615e-07
-2.32299e-07
3.10867e-07
-2.15314e-07
2.95161e-07
-1.99907e-07
2.80434e-07
-1.85869e-07
2.66623e-07
-1.73025e-07
2.5367e-07
-1.61226e-07
2.41519e-07
-1.50347e-07
2.30121e-07
-1.40281e-07
2.1943e-07
-1.30936e-07
2.09403e-07
-1.22231e-07
2e-07
-1.14099e-07
1.91187e-07
-1.06479e-07
1.8293e-07
-9.9318e-08
1.75198e-07
-9.25701e-08
1.67966e-07
-8.61932e-08
1.61207e-07
-8.01506e-08
1.54898e-07
-7.44093e-08
1.4902e-07
-6.89398e-08
1.43552e-07
-6.37154e-08
1.38476e-07
-5.87114e-08
1.33779e-07
-5.39055e-08
1.29444e-07
-4.92772e-08
1.2546e-07
-4.48078e-08
1.21814e-07
-4.048e-08
1.18496e-07
-3.62782e-08
1.15497e-07
-3.21877e-08
1.12809e-07
-2.81949e-08
1.10425e-07
-2.42805e-08
1.08321e-07
-2.04209e-08
1.0648e-07
-1.65992e-08
1.04912e-07
-1.28037e-08
1.03629e-07
-9.02311e-09
1.0263e-07
-5.24595e-09
1.01913e-07
-1.46064e-09
1.01477e-07
2.34459e-09
1.01323e-07
6.18181e-09
1.01452e-07
1.00634e-08
1.01866e-07
1.40022e-08
1.02567e-07
1.80113e-08
1.0356e-07
2.21043e-08
1.04849e-07
2.62953e-08
1.06441e-07
3.05993e-08
1.08341e-07
3.50319e-08
1.10557e-07
3.96097e-08
1.13098e-07
4.43506e-08
1.15973e-07
4.92737e-08
1.19194e-07
5.43997e-08
1.22773e-07
5.97506e-08
1.26722e-07
6.53507e-08
1.31057e-07
7.12261e-08
1.35794e-07
7.74058e-08
1.40951e-07
8.39212e-08
1.46547e-07
9.08076e-08
1.52603e-07
9.81039e-08
1.59143e-07
1.05854e-07
1.66192e-07
1.14106e-07
1.73778e-07
1.22915e-07
1.81931e-07
1.32344e-07
1.90684e-07
1.42463e-07
2.00073e-07
1.53355e-07
2.10137e-07
1.65111e-07
2.20919e-07
1.7784e-07
2.32464e-07
1.91667e-07
2.44824e-07
2.06741e-07
2.58051e-07
2.23235e-07
2.72206e-07
2.41357e-07
2.87352e-07
2.61355e-07
3.03555e-07
2.83529e-07
3.20887e-07
3.08243e-07
3.39423e-07
3.35951e-07
3.59236e-07
3.67211e-07
3.80398e-07
4.02725e-07
4.02972e-07
4.43385e-07
4.27003e-07
4.90325e-07
4.52503e-07
5.45006e-07
4.79426e-07
6.09294e-07
5.07632e-07
6.85577e-07
5.36834e-07
7.7676e-07
5.66521e-07
8.85891e-07
5.95865e-07
1.01384e-06
6.237e-07
1.14776e-06
6.49025e-07
1.20901e-06
6.74357e-07
8.53414e-07
7.24744e-07
1.00448e-06
-8.86972e-07
6.9888e-07
-1.16735e-06
5.523e-07
-1.13321e-06
5.25063e-07
-1.03791e-06
5.10937e-07
-9.39688e-07
4.96712e-07
-8.4991e-07
4.80755e-07
-7.70034e-07
4.6338e-07
-6.99466e-07
4.45134e-07
-6.37196e-07
4.26501e-07
-5.82177e-07
4.07856e-07
-5.33437e-07
3.89476e-07
-4.90109e-07
3.71555e-07
-4.51443e-07
3.54222e-07
-4.16796e-07
3.37561e-07
-3.85619e-07
3.21617e-07
-3.57448e-07
3.06412e-07
-3.31892e-07
2.91951e-07
-3.08617e-07
2.78223e-07
-2.8734e-07
2.65213e-07
-2.67822e-07
2.52898e-07
-2.49855e-07
2.41252e-07
-2.33263e-07
2.3025e-07
-2.17892e-07
2.19863e-07
-2.03611e-07
2.10065e-07
-1.90304e-07
2.00829e-07
-1.77869e-07
1.92129e-07
-1.66217e-07
1.83941e-07
-1.55271e-07
1.76242e-07
-1.4496e-07
1.6901e-07
-1.35223e-07
1.62225e-07
-1.26003e-07
1.55868e-07
-1.17251e-07
1.4992e-07
-1.08923e-07
1.44366e-07
-1.00976e-07
1.3919e-07
-9.33757e-08
1.34378e-07
-8.60864e-08
1.29917e-07
-7.90771e-08
1.25795e-07
-7.23191e-08
1.22003e-07
-6.5786e-08
1.18529e-07
-5.94532e-08
1.15366e-07
-5.3298e-08
1.12505e-07
-4.72988e-08
1.0994e-07
-4.14354e-08
1.07665e-07
-3.56814e-08
1.05651e-07
-3.00076e-08
1.03876e-07
-2.43917e-08
1.02359e-07
-1.88166e-08
1.01116e-07
-1.3265e-08
1.00146e-07
-7.71991e-09
9.94466e-08
-2.16431e-09
9.90176e-08
3.41917e-09
9.88592e-08
9.04815e-09
9.89724e-08
1.47407e-08
9.93591e-08
2.05151e-08
1.00022e-07
2.63904e-08
1.00964e-07
3.23861e-08
1.0219e-07
3.85225e-08
1.03704e-07
4.48209e-08
1.05513e-07
5.13035e-08
1.07623e-07
5.79944e-08
1.10041e-07
6.49186e-08
1.12777e-07
7.21034e-08
1.15839e-07
7.95776e-08
1.19238e-07
8.73725e-08
1.22986e-07
9.55218e-08
1.27095e-07
1.04062e-07
1.31579e-07
1.13033e-07
1.36452e-07
1.22479e-07
1.41732e-07
1.32448e-07
1.47435e-07
1.42992e-07
1.5358e-07
1.54172e-07
1.60188e-07
1.66053e-07
1.6728e-07
1.78709e-07
1.7488e-07
1.92221e-07
1.83011e-07
2.06685e-07
1.91702e-07
2.22204e-07
2.00979e-07
2.38899e-07
2.10871e-07
2.56908e-07
2.2141e-07
2.76387e-07
2.32626e-07
2.97519e-07
2.44552e-07
3.20513e-07
2.5722e-07
3.45616e-07
2.7066e-07
3.73112e-07
2.84901e-07
4.03338e-07
2.99968e-07
4.36689e-07
3.15878e-07
4.73634e-07
3.32637e-07
5.14725e-07
3.50236e-07
5.60615e-07
3.68643e-07
6.12073e-07
3.87791e-07
6.7e-07
4.07569e-07
7.35431e-07
4.27803e-07
8.09525e-07
4.48236e-07
8.93514e-07
4.68506e-07
9.88543e-07
4.88127e-07
1.09511e-06
5.06484e-07
1.21073e-06
5.22928e-07
1.31885e-06
5.3731e-07
1.3384e-06
5.52823e-07
9.26945e-07
5.908e-07
8.21749e-07
-9.21223e-07
5.86747e-07
-1.22785e-06
4.63343e-07
-1.21532e-06
4.42194e-07
-1.13679e-06
4.32788e-07
-1.05051e-06
4.23771e-07
-9.6831e-07
4.13467e-07
-8.92373e-07
4.01893e-07
-8.22882e-07
3.89341e-07
-7.59549e-07
3.76119e-07
-7.01938e-07
3.62498e-07
-6.49561e-07
3.48706e-07
-6.01924e-07
3.34927e-07
-5.58552e-07
3.21304e-07
-5.18997e-07
3.07948e-07
-4.82854e-07
2.9494e-07
-4.49756e-07
2.82338e-07
-4.19375e-07
2.70182e-07
-3.91421e-07
2.58497e-07
-3.65635e-07
2.47298e-07
-3.4179e-07
2.36591e-07
-3.19685e-07
2.26376e-07
-2.99143e-07
2.16647e-07
-2.80008e-07
2.07396e-07
-2.62139e-07
1.98613e-07
-2.45413e-07
1.90285e-07
-2.29721e-07
1.824e-07
-2.14964e-07
1.74944e-07
-2.01055e-07
1.67902e-07
-1.87913e-07
1.61263e-07
-1.75469e-07
1.55012e-07
-1.63657e-07
1.49136e-07
-1.52419e-07
1.43624e-07
-1.41703e-07
1.38463e-07
-1.31459e-07
1.33642e-07
-1.21643e-07
1.2915e-07
-1.12213e-07
1.24979e-07
-1.03132e-07
1.2112e-07
-9.43645e-08
1.17563e-07
-8.58772e-08
1.14301e-07
-7.76399e-08
1.11327e-07
-6.96235e-08
1.08636e-07
-6.18008e-08
1.06222e-07
-5.41456e-08
1.0408e-07
-4.6626e-08
1.02177e-07
-3.92088e-08
1.00487e-07
-3.18682e-08
9.90367e-08
-2.45815e-08
9.78466e-08
-1.73264e-08
9.69146e-08
-1.00809e-08
9.62393e-08
-2.82278e-09
9.58204e-08
4.47026e-09
9.56581e-08
1.18208e-08
9.57533e-08
1.9252e-08
9.61074e-08
2.67872e-08
9.67228e-08
3.44505e-08
9.76022e-08
4.22666e-08
9.87493e-08
5.02613e-08
1.00168e-07
5.84614e-08
1.01864e-07
6.68951e-08
1.03842e-07
7.55924e-08
1.06109e-07
8.45847e-08
1.08671e-07
9.39057e-08
1.11538e-07
1.03591e-07
1.14716e-07
1.1368e-07
1.18216e-07
1.24213e-07
1.22048e-07
1.35235e-07
1.26222e-07
1.46794e-07
1.30751e-07
1.58944e-07
1.35646e-07
1.71741e-07
1.40922e-07
1.85249e-07
1.46592e-07
1.99538e-07
1.52671e-07
2.14683e-07
1.59174e-07
2.30772e-07
1.66117e-07
2.47896e-07
1.73517e-07
2.66163e-07
1.81391e-07
2.85689e-07
1.89756e-07
3.06606e-07
1.98627e-07
3.29062e-07
2.0802e-07
3.53224e-07
2.17951e-07
3.79279e-07
2.28432e-07
4.07442e-07
2.39472e-07
4.37953e-07
2.51076e-07
4.71086e-07
2.63244e-07
5.0715e-07
2.75966e-07
5.46496e-07
2.89223e-07
5.89518e-07
3.02982e-07
6.36658e-07
3.1719e-07
6.88403e-07
3.31772e-07
7.45288e-07
3.46622e-07
8.07883e-07
3.616e-07
8.76773e-07
3.76522e-07
9.52525e-07
3.91153e-07
1.03563e-06
4.05209e-07
1.12635e-06
4.18349e-07
1.22427e-06
4.30206e-07
1.32609e-06
4.4047e-07
1.41481e-06
4.4934e-07
1.40946e-06
4.59865e-07
9.67762e-07
4.89951e-07
6.84761e-07
-9.42039e-07
4.98501e-07
-1.26488e-06
3.93e-07
-1.26639e-06
3.75931e-07
-1.19976e-06
3.69246e-07
-1.12312e-06
3.632e-07
-1.0483e-06
3.5624e-07
-9.77615e-07
3.48266e-07
-9.11468e-07
3.39429e-07
-8.49858e-07
3.29914e-07
-7.92636e-07
3.19901e-07
-7.39591e-07
3.09555e-07
-6.90467e-07
2.99017e-07
-6.44995e-07
2.88411e-07
-6.02896e-07
2.77836e-07
-5.63901e-07
2.67378e-07
-5.27748e-07
2.57102e-07
-4.94193e-07
2.47061e-07
-4.63009e-07
2.37294e-07
-4.33984e-07
2.27833e-07
-4.06925e-07
2.18698e-07
-3.81658e-07
2.09904e-07
-3.58022e-07
2.01461e-07
-3.35873e-07
1.93374e-07
-3.15078e-07
1.85643e-07
-2.95519e-07
1.78269e-07
-2.77086e-07
1.71247e-07
-2.59681e-07
1.64573e-07
-2.43214e-07
1.58242e-07
-2.27605e-07
1.52247e-07
-2.12777e-07
1.46581e-07
-1.98664e-07
1.41237e-07
-1.85201e-07
1.36207e-07
-1.72332e-07
1.31484e-07
-1.60003e-07
1.2706e-07
-1.48165e-07
1.2293e-07
-1.36771e-07
1.19086e-07
-1.25779e-07
1.15523e-07
-1.1515e-07
1.12233e-07
-1.04845e-07
1.09212e-07
-9.48285e-08
1.06455e-07
-8.50681e-08
1.03958e-07
-7.55312e-08
1.01715e-07
-6.61874e-08
9.97249e-08
-5.70004e-08
9.79468e-08
-4.7934e-08
9.6356e-08
-3.89599e-08
9.4987e-08
-3.00509e-08
9.38606e-08
-2.11803e-08
9.29754e-08
-1.23218e-08
9.23303e-08
-3.44873e-09
9.19252e-08
5.46541e-09
9.17601e-08
1.44475e-08
9.18358e-08
2.35249e-08
9.21536e-08
3.27254e-08
9.27153e-08
4.20772e-08
9.35233e-08
5.16097e-08
9.45804e-08
6.13531e-08
9.58901e-08
7.13388e-08
9.74564e-08
8.16e-08
9.92838e-08
9.21712e-08
1.01377e-07
1.03089e-07
1.03743e-07
1.14392e-07
1.06386e-07
1.26122e-07
1.09313e-07
1.38322e-07
1.12533e-07
1.51038e-07
1.16051e-07
1.64322e-07
1.19877e-07
1.78227e-07
1.24019e-07
1.92812e-07
1.28485e-07
2.08139e-07
1.33286e-07
2.24279e-07
1.3843e-07
2.41305e-07
1.43927e-07
2.593e-07
1.49786e-07
2.78354e-07
1.56018e-07
2.98564e-07
1.6263e-07
3.20039e-07
1.69632e-07
3.42897e-07
1.77031e-07
3.67269e-07
1.84832e-07
3.933e-07
1.93041e-07
4.21149e-07
2.01657e-07
4.50991e-07
2.10681e-07
4.83021e-07
2.20104e-07
5.1745e-07
2.29917e-07
5.54514e-07
2.401e-07
5.94466e-07
2.50626e-07
6.37584e-07
2.61457e-07
6.84164e-07
2.72543e-07
7.3452e-07
2.83818e-07
7.88981e-07
2.95199e-07
8.47877e-07
3.06581e-07
9.11531e-07
3.17837e-07
9.80239e-07
3.28816e-07
1.05424e-06
3.39341e-07
1.13369e-06
3.49212e-07
1.21853e-06
3.58213e-07
1.30811e-06
3.6613e-07
1.39902e-06
3.72825e-07
1.47431e-06
3.78608e-07
1.45309e-06
3.86198e-07
9.92797e-07
4.10684e-07
5.77236e-07
-9.55714e-07
4.26617e-07
-1.28932e-06
3.35599e-07
-1.30039e-06
3.2151e-07
-1.24224e-06
3.16543e-07
-1.17293e-06
3.1232e-07
-1.10421e-06
3.07453e-07
-1.03839e-06
3.01798e-07
-9.75925e-07
2.95432e-07
-9.16898e-07
2.88469e-07
-8.61283e-07
2.81025e-07
-8.08995e-07
2.73214e-07
-7.59913e-07
2.65138e-07
-7.1389e-07
2.56892e-07
-6.70764e-07
2.48558e-07
-6.30362e-07
2.40209e-07
-5.9251e-07
2.31905e-07
-5.57034e-07
2.23699e-07
-5.23768e-07
2.15632e-07
-4.92548e-07
2.07741e-07
-4.63223e-07
2.00052e-07
-4.35648e-07
1.92588e-07
-4.09688e-07
1.85366e-07
-3.85218e-07
1.78399e-07
-3.62121e-07
1.71695e-07
-3.40287e-07
1.65261e-07
-3.19617e-07
1.591e-07
-3.00019e-07
1.53215e-07
-2.81406e-07
1.47606e-07
-2.63698e-07
1.42271e-07
-2.46823e-07
1.37209e-07
-2.30712e-07
1.32417e-07
-2.15301e-07
1.27892e-07
-2.0053e-07
1.2363e-07
-1.86346e-07
1.19627e-07
-1.72696e-07
1.15881e-07
-1.59532e-07
1.12386e-07
-1.46808e-07
1.09139e-07
-1.34482e-07
1.06137e-07
-1.22512e-07
1.03376e-07
-1.1086e-07
1.00853e-07
-9.949e-08
9.85639e-08
-8.83656e-08
9.65074e-08
-7.74533e-08
9.46808e-08
-6.67136e-08
9.30389e-08
-5.61088e-08
9.15585e-08
-4.56087e-08
9.02811e-08
-3.51825e-08
8.92272e-08
-2.48001e-08
8.83958e-08
-1.44313e-08
8.77861e-08
-4.04621e-09
8.7398e-08
6.38527e-09
8.72316e-08
1.68935e-08
8.72877e-08
2.75093e-08
8.75671e-08
3.82639e-08
8.80714e-08
4.91893e-08
8.88024e-08
6.03181e-08
8.97624e-08
7.16844e-08
9.09539e-08
8.33231e-08
9.23801e-08
9.5271e-08
9.40445e-08
1.07566e-07
9.59508e-08
1.20249e-07
9.81032e-08
1.33362e-07
1.00506e-07
1.46949e-07
1.03164e-07
1.61058e-07
1.06083e-07
1.75739e-07
1.09268e-07
1.91045e-07
1.12723e-07
2.07034e-07
1.16455e-07
2.23766e-07
1.2047e-07
2.41308e-07
1.24773e-07
2.59731e-07
1.29369e-07
2.7911e-07
1.34263e-07
2.99527e-07
1.39461e-07
3.21073e-07
1.44966e-07
3.43843e-07
1.50781e-07
3.6794e-07
1.56908e-07
3.93479e-07
1.63347e-07
4.2058e-07
1.70097e-07
4.49376e-07
1.77154e-07
4.80009e-07
1.8451e-07
5.12632e-07
1.92155e-07
5.47412e-07
2.00074e-07
5.84523e-07
2.08246e-07
6.24154e-07
2.16645e-07
6.66502e-07
2.25235e-07
7.11772e-07
2.33974e-07
7.60175e-07
2.4281e-07
8.11925e-07
2.51679e-07
8.6723e-07
2.60506e-07
9.26286e-07
2.69201e-07
9.89269e-07
2.77665e-07
1.05632e-06
2.85782e-07
1.12753e-06
2.93428e-07
1.20293e-06
3.00468e-07
1.28236e-06
3.06766e-07
1.36515e-06
3.12195e-07
1.44792e-06
3.16701e-07
1.5138e-06
3.20614e-07
1.48189e-06
3.26305e-07
1.00929e-06
3.46551e-07
4.90105e-07
-9.65197e-07
3.66567e-07
-1.30631e-06
2.87653e-07
-1.32416e-06
2.75871e-07
-1.27218e-06
2.72067e-07
-1.20838e-06
2.69028e-07
-1.1445e-06
2.65533e-07
-1.08277e-06
2.61429e-07
-1.02365e-06
2.56754e-07
-9.67251e-07
2.51577e-07
-9.13585e-07
2.45976e-07
-8.62622e-07
2.40029e-07
-8.14307e-07
2.33808e-07
-7.68561e-07
2.27382e-07
-7.25289e-07
2.20816e-07
-6.84383e-07
2.14168e-07
-6.45727e-07
2.07488e-07
-6.09203e-07
2.00822e-07
-5.74689e-07
1.9421e-07
-5.42065e-07
1.87685e-07
-5.11213e-07
1.81276e-07
-4.8202e-07
1.75007e-07
-4.54375e-07
1.68897e-07
-4.28173e-07
1.62964e-07
-4.03315e-07
1.5722e-07
-3.79706e-07
1.51675e-07
-3.57257e-07
1.46337e-07
-3.35884e-07
1.41212e-07
-3.15509e-07
1.36305e-07
-2.96056e-07
1.31619e-07
-2.77457e-07
1.27154e-07
-2.59645e-07
1.22912e-07
-2.42558e-07
1.18893e-07
-2.26138e-07
1.15096e-07
-2.10331e-07
1.11521e-07
-1.95085e-07
1.08165e-07
-1.8035e-07
1.05028e-07
-1.6608e-07
1.02107e-07
-1.52231e-07
9.94013e-08
-1.38759e-07
9.69086e-08
-1.25625e-07
9.46272e-08
-1.12789e-07
9.25557e-08
-1.00215e-07
9.06924e-08
-8.78654e-08
8.90363e-08
-7.56993e-08
8.7537e-08
-6.36786e-08
8.61743e-08
-5.17715e-08
8.49962e-08
-3.99447e-08
8.40213e-08
-2.81652e-08
8.3249e-08
-1.64004e-08
8.26789e-08
-4.6174e-09
8.23109e-08
7.21646e-09
8.21453e-08
1.91343e-08
8.21824e-08
3.11696e-08
8.24231e-08
4.33564e-08
8.28686e-08
5.57292e-08
8.35201e-08
6.83236e-08
8.43794e-08
8.11762e-08
8.54485e-08
9.43246e-08
8.67294e-08
1.07808e-07
8.82248e-08
1.21667e-07
8.99371e-08
1.35945e-07
9.18694e-08
1.50685e-07
9.40245e-08
1.65935e-07
9.64057e-08
1.81744e-07
9.90162e-08
1.98163e-07
1.01859e-07
2.15247e-07
1.04938e-07
2.33054e-07
1.08255e-07
2.51647e-07
1.11814e-07
2.7109e-07
1.15618e-07
2.91454e-07
1.19668e-07
3.12813e-07
1.23965e-07
3.35246e-07
1.28512e-07
3.58838e-07
1.33308e-07
3.8368e-07
1.38351e-07
4.09868e-07
1.43639e-07
4.37505e-07
1.49167e-07
4.66699e-07
1.54929e-07
4.97567e-07
1.60916e-07
5.30232e-07
1.67116e-07
5.64822e-07
1.73514e-07
6.01474e-07
1.8009e-07
6.40329e-07
1.86821e-07
6.81533e-07
1.93678e-07
7.25234e-07
2.00626e-07
7.71582e-07
2.07624e-07
8.20725e-07
2.14625e-07
8.72806e-07
2.21573e-07
9.27958e-07
2.28406e-07
9.86297e-07
2.35056e-07
1.04792e-06
2.41443e-07
1.1129e-06
2.47487e-07
1.18127e-06
2.531e-07
1.253e-06
2.58191e-07
1.32795e-06
2.62672e-07
1.40545e-06
2.66467e-07
1.48217e-06
2.69563e-07
1.54129e-06
2.72275e-07
1.50187e-06
2.76653e-07
1.02071e-06
2.93547e-07
4.17824e-07
-9.72035e-07
3.15407e-07
-1.31857e-06
2.46861e-07
-1.34138e-06
2.36941e-07
-1.29397e-06
2.33966e-07
-1.23437e-06
2.31733e-07
-1.17426e-06
2.29175e-07
-1.11585e-06
2.26144e-07
-1.05959e-06
2.22656e-07
-1.00556e-06
2.18757e-07
-9.538e-07
2.14497e-07
-9.04299e-07
2.09931e-07
-8.5703e-07
2.05111e-07
-8.11949e-07
2.00086e-07
-7.68998e-07
1.94905e-07
-7.28108e-07
1.89612e-07
-6.89202e-07
1.8425e-07
-6.52198e-07
1.78855e-07
-6.17007e-07
1.73462e-07
-5.8354e-07
1.681e-07
-5.51708e-07
1.62795e-07
-5.21421e-07
1.57571e-07
-4.92591e-07
1.52448e-07
-4.65131e-07
1.47442e-07
-4.38959e-07
1.42568e-07
-4.13994e-07
1.37838e-07
-3.90158e-07
1.33262e-07
-3.67377e-07
1.28849e-07
-3.45581e-07
1.24604e-07
-3.24701e-07
1.20534e-07
-3.04674e-07
1.16641e-07
-2.85437e-07
1.1293e-07
-2.66932e-07
1.09403e-07
-2.49103e-07
1.0606e-07
-2.31898e-07
1.02904e-07
-2.15266e-07
9.99344e-08
-1.99157e-07
9.71517e-08
-1.83526e-07
9.45556e-08
-1.68328e-07
9.21461e-08
-1.53519e-07
8.99226e-08
-1.39059e-07
8.78848e-08
-1.24907e-07
8.6032e-08
-1.11025e-07
8.43638e-08
-9.73755e-08
8.28799e-08
-8.39157e-08
8.15258e-08
-7.06079e-08
8.0285e-08
-5.74198e-08
7.92109e-08
-4.4316e-08
7.83194e-08
-3.12617e-08
7.76102e-08
-1.82222e-08
7.7083e-08
-5.16281e-09
7.67379e-08
7.95132e-09
7.65751e-08
2.11553e-08
7.6595e-08
3.44844e-08
7.67983e-08
4.79748e-08
7.71856e-08
6.16629e-08
7.77579e-08
7.55861e-08
7.85166e-08
8.97829e-08
7.94627e-08
1.04293e-07
8.05979e-08
1.19156e-07
8.19237e-08
1.34416e-07
8.34418e-08
1.50115e-07
8.51539e-08
1.66299e-07
8.70618e-08
1.83017e-07
8.91672e-08
2.00317e-07
9.14718e-08
2.18252e-07
9.39772e-08
2.36876e-07
9.66848e-08
2.56247e-07
9.95957e-08
2.76426e-07
1.02711e-07
2.97475e-07
1.0603e-07
3.19463e-07
1.09554e-07
3.42459e-07
1.1328e-07
3.6654e-07
1.17208e-07
3.91782e-07
1.21335e-07
4.1827e-07
1.25656e-07
4.4609e-07
1.30165e-07
4.75334e-07
1.34856e-07
5.06098e-07
1.3972e-07
5.3848e-07
1.44744e-07
5.72586e-07
1.49916e-07
6.08522e-07
1.55218e-07
6.46399e-07
1.6063e-07
6.86329e-07
1.66128e-07
7.28424e-07
1.71686e-07
7.72798e-07
1.77271e-07
8.1956e-07
1.82849e-07
8.68816e-07
1.88377e-07
9.20664e-07
1.93812e-07
9.75193e-07
1.99104e-07
1.03248e-06
2.042e-07
1.09258e-06
2.09043e-07
1.15553e-06
2.13573e-07
1.22134e-06
2.17728e-07
1.28999e-06
2.21449e-07
1.36134e-06
2.24676e-07
1.43475e-06
2.27363e-07
1.50694e-06
2.29515e-07
1.56109e-06
2.3142e-07
1.51624e-06
2.34845e-07
1.02893e-06
2.49005e-07
3.56749e-07
-9.77104e-07
2.71109e-07
-1.32767e-06
2.11622e-07
-1.35418e-06
2.03251e-07
-1.31023e-06
2.00894e-07
-1.25385e-06
1.99229e-07
-1.1967e-06
1.9733e-07
-1.14095e-06
1.95063e-07
-1.08704e-06
1.92432e-07
-1.03505e-06
1.89465e-07
-9.85009e-07
1.86198e-07
-9.36906e-07
1.82669e-07
-8.90731e-07
1.78915e-07
-8.46456e-07
1.74972e-07
-8.04044e-07
1.70876e-07
-7.63446e-07
1.66663e-07
-7.24609e-07
1.62363e-07
-6.87474e-07
1.58008e-07
-6.51976e-07
1.53624e-07
-6.18048e-07
1.49238e-07
-5.85619e-07
1.44873e-07
-5.5462e-07
1.40548e-07
-5.24979e-07
1.36283e-07
-4.96627e-07
1.32093e-07
-4.69494e-07
1.27993e-07
-4.4351e-07
1.23995e-07
-4.1861e-07
1.2011e-07
-3.94729e-07
1.16347e-07
-3.71803e-07
1.12713e-07
-3.49773e-07
1.09214e-07
-3.28579e-07
1.05858e-07
-3.08164e-07
1.02647e-07
-2.88475e-07
9.95853e-08
-2.69458e-07
9.66762e-08
-2.51064e-07
9.39219e-08
-2.33242e-07
9.13243e-08
-2.15947e-07
8.88846e-08
-1.99133e-07
8.66042e-08
-1.82755e-07
8.44837e-08
-1.66771e-07
8.25238e-08
-1.51139e-07
8.07249e-08
-1.3582e-07
7.90874e-08
-1.20773e-07
7.76115e-08
-1.05961e-07
7.62976e-08
-9.13421e-08
7.50882e-08
-7.6879e-08
7.3971e-08
-6.25387e-08
7.30033e-08
-4.82847e-08
7.21977e-08
-3.40811e-08
7.15539e-08
-1.98918e-08
7.10721e-08
-5.68076e-09
7.07523e-08
8.58814e-09
7.05947e-08
2.29513e-08
7.05997e-08
3.74456e-08
7.07677e-08
5.21083e-08
7.10992e-08
6.69771e-08
7.15949e-08
8.20908e-08
7.22555e-08
9.74885e-08
7.30818e-08
1.13211e-07
7.40746e-08
1.29299e-07
7.52349e-08
1.45797e-07
7.65634e-08
1.62748e-07
7.80611e-08
1.80198e-07
7.97286e-08
1.98195e-07
8.15668e-08
2.16788e-07
8.3576e-08
2.36028e-07
8.57566e-08
2.55969e-07
8.81085e-08
2.76667e-07
9.06315e-08
2.9818e-07
9.33248e-08
3.20568e-07
9.6187e-08
3.43896e-07
9.92164e-08
3.68229e-07
1.0241e-07
3.93637e-07
1.05765e-07
4.20191e-07
1.09276e-07
4.47967e-07
1.12937e-07
4.77042e-07
1.16742e-07
5.07497e-07
1.20682e-07
5.39415e-07
1.24747e-07
5.72882e-07
1.28924e-07
6.07986e-07
1.332e-07
6.44815e-07
1.37558e-07
6.83459e-07
1.41979e-07
7.24009e-07
1.46441e-07
7.66554e-07
1.50921e-07
8.1118e-07
1.55391e-07
8.57972e-07
1.5982e-07
9.07007e-07
1.64177e-07
9.58358e-07
1.68425e-07
1.01209e-06
1.72526e-07
1.06825e-06
1.76439e-07
1.12689e-06
1.80123e-07
1.18802e-06
1.83535e-07
1.25167e-06
1.8663e-07
1.3178e-06
1.89368e-07
1.3863e-06
1.91709e-07
1.45654e-06
1.93622e-07
1.52529e-06
1.95124e-07
1.57574e-06
1.96469e-07
1.52685e-06
1.99172e-07
1.035e-06
2.11052e-07
3.04352e-07
-9.80941e-07
2.32208e-07
-1.33456e-06
1.80771e-07
-1.36388e-06
1.73717e-07
-1.32259e-06
1.71838e-07
-1.2687e-06
1.70586e-07
-1.21387e-06
1.69166e-07
-1.16026e-06
1.67456e-07
-1.10827e-06
1.65455e-07
-1.05799e-06
1.63183e-07
-1.00942e-06
1.60663e-07
-9.62575e-07
1.57923e-07
-9.17431e-07
1.5499e-07
-8.73972e-07
1.51889e-07
-8.32169e-07
1.48649e-07
-7.91989e-07
1.45295e-07
-7.5339e-07
1.41853e-07
-7.16327e-07
1.38345e-07
-6.80751e-07
1.34795e-07
-6.46608e-07
1.31224e-07
-6.13843e-07
1.27651e-07
-5.824e-07
1.24093e-07
-5.52222e-07
1.20566e-07
-5.23249e-07
1.17086e-07
-4.95422e-07
1.13666e-07
-4.68685e-07
1.10316e-07
-4.42979e-07
1.07047e-07
-4.18247e-07
1.03869e-07
-3.94434e-07
1.00788e-07
-3.71486e-07
9.78132e-08
-3.4935e-07
9.4949e-08
-3.27973e-07
9.2201e-08
-3.07305e-07
8.95735e-08
-2.87297e-07
8.70702e-08
-2.67902e-07
8.46943e-08
-2.49073e-07
8.24486e-08
-2.30765e-07
8.0335e-08
-2.12933e-07
7.83557e-08
-1.95535e-07
7.6512e-08
-1.78529e-07
7.48053e-08
-1.61875e-07
7.32366e-08
-1.45531e-07
7.1807e-08
-1.2946e-07
7.05172e-08
-1.13621e-07
6.9368e-08
-9.79763e-08
6.83004e-08
-8.24884e-08
6.73064e-08
-6.71244e-08
6.64456e-08
-5.18472e-08
6.57267e-08
-3.662e-08
6.51497e-08
-2.14061e-08
6.47149e-08
-6.16871e-09
6.44225e-08
9.12923e-09
6.42725e-08
2.45249e-08
6.42654e-08
4.0056e-08
6.44014e-08
5.57603e-08
6.46808e-08
7.16766e-08
6.5104e-08
8.78438e-08
6.56714e-08
1.04302e-07
6.63833e-08
1.21092e-07
6.72402e-08
1.38255e-07
6.82424e-08
1.55835e-07
6.939e-08
1.73875e-07
7.06833e-08
1.92422e-07
7.21223e-08
2.11521e-07
7.37068e-08
2.31221e-07
7.54366e-08
2.51573e-07
7.73109e-08
2.72628e-07
7.93289e-08
2.94439e-07
8.14892e-08
3.17062e-07
8.379e-08
3.40554e-07
8.62291e-08
3.64976e-07
8.88034e-08
3.90388e-07
9.15094e-08
4.16853e-07
9.43425e-08
4.44438e-07
9.72975e-08
4.73211e-07
1.00368e-07
5.0324e-07
1.03546e-07
5.34596e-07
1.06823e-07
5.67353e-07
1.10189e-07
6.01583e-07
1.13632e-07
6.37362e-07
1.17139e-07
6.74765e-07
1.20694e-07
7.13867e-07
1.24282e-07
7.54741e-07
1.27882e-07
7.97459e-07
1.31474e-07
8.42093e-07
1.35036e-07
8.88708e-07
1.38543e-07
9.37367e-07
1.41968e-07
9.88127e-07
1.45284e-07
1.04104e-06
1.48461e-07
1.09614e-06
1.51469e-07
1.15347e-06
1.54276e-07
1.21305e-06
1.56851e-07
1.2749e-06
1.59164e-07
1.339e-06
1.61184e-07
1.40524e-06
1.62885e-07
1.47303e-06
1.64247e-07
1.53914e-06
1.65289e-07
1.58677e-06
1.66234e-07
1.53485e-06
1.68374e-07
1.03958e-06
1.78319e-07
2.58797e-07
-9.83888e-07
1.97604e-07
-1.33985e-06
1.53429e-07
-1.37134e-06
1.47517e-07
-1.3321e-06
1.46017e-07
-1.28017e-06
1.45073e-07
-1.22717e-06
1.44008e-07
-1.17526e-06
1.42715e-07
-1.12484e-06
1.41189e-07
-1.07596e-06
1.39443e-07
-1.02864e-06
1.37495e-07
-9.82874e-07
1.35364e-07
-9.38652e-07
1.3307e-07
-8.95954e-07
1.30633e-07
-8.54756e-07
1.28072e-07
-8.1503e-07
1.25407e-07
-7.76743e-07
1.22659e-07
-7.39859e-07
1.19845e-07
-7.04336e-07
1.16983e-07
-6.70133e-07
1.14091e-07
-6.37202e-07
1.11184e-07
-6.05498e-07
1.08276e-07
-5.74973e-07
1.05383e-07
-5.45576e-07
1.02516e-07
-5.17258e-07
9.96867e-08
-4.89969e-07
9.69058e-08
-4.63657e-07
9.41826e-08
-4.38275e-07
9.15256e-08
-4.13771e-07
8.89423e-08
-3.90098e-07
8.64395e-08
-3.67207e-07
8.40232e-08
-3.4505e-07
8.16985e-08
-3.23582e-07
7.94701e-08
-3.02756e-07
7.73421e-08
-2.82527e-07
7.53179e-08
-2.62852e-07
7.34005e-08
-2.43687e-07
7.15927e-08
-2.24991e-07
6.98966e-08
-2.06721e-07
6.83144e-08
-1.88838e-07
6.68475e-08
-1.713e-07
6.54977e-08
-1.5407e-07
6.42661e-08
-1.37107e-07
6.31539e-08
-1.20373e-07
6.21622e-08
-1.0383e-07
6.1232e-08
-8.74448e-08
6.03595e-08
-7.11825e-08
5.96043e-08
-5.50062e-08
5.89717e-08
-3.88789e-08
5.84619e-08
-2.27634e-08
5.80753e-08
-6.62253e-09
5.78119e-08
9.58101e-09
5.7672e-08
2.58849e-08
5.76558e-08
4.2327e-08
5.77636e-08
5.89458e-08
5.79954e-08
7.57798e-08
5.83515e-08
9.28684e-08
5.88319e-08
1.10252e-07
5.94367e-08
1.2797e-07
6.0166e-08
1.46065e-07
6.10196e-08
1.6458e-07
6.19974e-08
1.83558e-07
6.30991e-08
2.03043e-07
6.43242e-08
2.23082e-07
6.5672e-08
2.43721e-07
6.71415e-08
2.65009e-07
6.87317e-08
2.86995e-07
7.04408e-08
3.09731e-07
7.22671e-08
3.3327e-07
7.42082e-08
3.57664e-07
7.62612e-08
3.8297e-07
7.84227e-08
4.09245e-07
8.06886e-08
4.36547e-07
8.30541e-08
4.64936e-07
8.55136e-08
4.94474e-07
8.80606e-08
5.25221e-07
9.06878e-08
5.57242e-07
9.33866e-08
5.90601e-07
9.61477e-08
6.25362e-07
9.89602e-08
6.6159e-07
1.01812e-07
6.99349e-07
1.0469e-07
7.38703e-07
1.0758e-07
7.79716e-07
1.10466e-07
8.22447e-07
1.1333e-07
8.66956e-07
1.16154e-07
9.133e-07
1.18919e-07
9.6153e-07
1.21603e-07
1.01169e-06
1.24184e-07
1.06384e-06
1.2664e-07
1.118e-06
1.28949e-07
1.17421e-06
1.31086e-07
1.23249e-06
1.33029e-07
1.29287e-06
1.34755e-07
1.35534e-06
1.36243e-07
1.4198e-06
1.37474e-07
1.48567e-06
1.38435e-07
1.54974e-06
1.39147e-07
1.59521e-06
1.398e-07
1.54097e-06
1.41487e-07
1.04309e-06
1.49767e-07
2.187e-07
-9.86173e-07
1.66446e-07
-1.34396e-06
1.28911e-07
-1.37713e-06
1.24004e-07
-1.3395e-06
1.22813e-07