/*--------------------------------*- C++ -*----------------------------------*\
| =========                 |                                                 |
| \\      /  F ield         | OpenFOAM: The Open Source CFD Toolbox           |
|  \\    /   O peration     | Version:  2406                                  |
|   \\  /    A nd           | Website:  www.openfoam.com                      |
|    \\/     M anipulation  |                                                 |
\*---------------------------------------------------------------------------*/
FoamFile
{
    version     2.0;
    format      ascii;
    arch        "LSB;label=32;scalar=64";
    class       volVectorField;
    location    "2.64e-05";
    object      U;
}
// * * * * * * * * * * * * * * * * * * * * * * * * * * * * * * * * * * * * * //

dimensions      [0 1 -1 0 0 0 0];

internalField   nonuniform List<vector> 
4000
(
(-0.015441 1.25558 0)
(-0.0647372 1.07029 0)
(-0.0661172 0.954615 0)
(-0.0511931 0.858069 0)
(-0.0409703 0.779685 0)
(-0.0344847 0.714896 0)
(-0.0296692 0.66018 0)
(-0.0258285 0.613126 0)
(-0.022715 0.572067 0)
(-0.0201594 0.535815 0)
(-0.0180377 0.503496 0)
(-0.0162528 0.474456 0)
(-0.01473 0.448189 0)
(-0.0134157 0.424302 0)
(-0.0122705 0.402478 0)
(-0.0112624 0.382462 0)
(-0.0103663 0.364045 0)
(-0.00956202 0.347051 0)
(-0.00884055 0.331335 0)
(-0.00818988 0.316772 0)
(-0.00759456 0.303257 0)
(-0.00704818 0.290697 0)
(-0.00654493 0.279012 0)
(-0.00607955 0.268132 0)
(-0.00564743 0.257995 0)
(-0.00524459 0.248547 0)
(-0.00486766 0.239739 0)
(-0.00451369 0.23153 0)
(-0.00418017 0.223881 0)
(-0.00386488 0.216758 0)
(-0.00356585 0.210131 0)
(-0.00328134 0.203973 0)
(-0.00300978 0.198258 0)
(-0.00274981 0.192966 0)
(-0.00250017 0.188076 0)
(-0.00225975 0.18357 0)
(-0.00202752 0.179433 0)
(-0.00180253 0.17565 0)
(-0.00158391 0.172208 0)
(-0.00137085 0.169096 0)
(-0.00116264 0.166303 0)
(-0.000958628 0.163821 0)
(-0.000758305 0.161642 0)
(-0.000561048 0.159756 0)
(-0.000365753 0.158159 0)
(-0.000171334 0.156847 0)
(2.27802e-05 0.155819 0)
(0.000216999 0.155073 0)
(0.000411822 0.154608 0)
(0.00060778 0.154425 0)
(0.000805422 0.154524 0)
(0.00100531 0.154908 0)
(0.00120803 0.155579 0)
(0.00141417 0.15654 0)
(0.00162437 0.157797 0)
(0.00183926 0.159354 0)
(0.00205954 0.161218 0)
(0.00228591 0.163397 0)
(0.00251912 0.165899 0)
(0.00275997 0.168735 0)
(0.00300932 0.171914 0)
(0.00326809 0.17545 0)
(0.00353727 0.179356 0)
(0.00381794 0.183648 0)
(0.00411128 0.188343 0)
(0.00441858 0.193459 0)
(0.00474125 0.199017 0)
(0.00508085 0.205041 0)
(0.0054391 0.211555 0)
(0.00581794 0.218589 0)
(0.00621955 0.226172 0)
(0.00664636 0.23434 0)
(0.00710114 0.24313 0)
(0.00758704 0.252586 0)
(0.00810766 0.262754 0)
(0.00866715 0.273687 0)
(0.00927034 0.285446 0)
(0.0099228 0.298096 0)
(0.0106311 0.311712 0)
(0.0114031 0.326382 0)
(0.012248 0.342202 0)
(0.0131771 0.359284 0)
(0.0142038 0.377758 0)
(0.015345 0.397775 0)
(0.0166212 0.419511 0)
(0.0180586 0.443177 0)
(0.0196903 0.469022 0)
(0.0215592 0.49735 0)
(0.0237209 0.528535 0)
(0.0262487 0.56304 0)
(0.0292381 0.601457 0)
(0.0328178 0.644552 0)
(0.0371162 0.693339 0)
(0.0422318 0.749204 0)
(0.0481655 0.814062 0)
(0.0547636 0.890598 0)
(0.0613187 0.982421 0)
(0.058218 1.09276 0)
(-0.00135645 1.21303 0)
(-0.0423313 1.41378 0)
(-0.136271 1.57367 0)
(-0.415371 1.34257 0)
(-0.43607 1.22863 0)
(-0.374887 1.12923 0)
(-0.309766 1.04021 0)
(-0.258658 0.961162 0)
(-0.220044 0.890969 0)
(-0.190364 0.82839 0)
(-0.166943 0.772319 0)
(-0.14802 0.721821 0)
(-0.132416 0.676119 0)
(-0.119326 0.634571 0)
(-0.108187 0.596647 0)
(-0.0985881 0.561903 0)
(-0.0902231 0.529971 0)
(-0.0828663 0.500538 0)
(-0.0763447 0.473343 0)
(-0.0705224 0.448159 0)
(-0.0652801 0.424794 0)
(-0.060531 0.403082 0)
(-0.0562164 0.38288 0)
(-0.0522781 0.364059 0)
(-0.0486672 0.346508 0)
(-0.0453427 0.330131 0)
(-0.0422697 0.314838 0)
(-0.0394188 0.300555 0)
(-0.036765 0.287211 0)
(-0.0342865 0.274745 0)
(-0.0319646 0.263103 0)
(-0.0297828 0.252234 0)
(-0.0277267 0.242095 0)
(-0.0257832 0.232644 0)
(-0.0239411 0.223847 0)
(-0.0221901 0.21567 0)
(-0.0205211 0.208084 0)
(-0.0189261 0.201062 0)
(-0.0173974 0.194581 0)
(-0.0159284 0.188618 0)
(-0.0145127 0.183154 0)
(-0.0131448 0.178172 0)
(-0.0118196 0.173657 0)
(-0.0105327 0.169594 0)
(-0.00928035 0.165971 0)
(-0.00805736 0.162768 0)
(-0.00685529 0.159965 0)
(-0.00566605 0.157566 0)
(-0.00448516 0.155577 0)
(-0.00330958 0.153996 0)
(-0.00213611 0.152819 0)
(-0.000961378 0.152048 0)
(0.000218132 0.151681 0)
(0.00140606 0.151722 0)
(0.00260618 0.152172 0)
(0.00382242 0.153037 0)
(0.00505885 0.154322 0)
(0.00631966 0.156034 0)
(0.00760925 0.158182 0)
(0.0089322 0.160776 0)
(0.0102933 0.163828 0)
(0.0116977 0.167351 0)
(0.0131509 0.171359 0)
(0.0146586 0.175871 0)
(0.0162274 0.180904 0)
(0.0178639 0.18648 0)
(0.0195756 0.192622 0)
(0.0213706 0.199356 0)
(0.0232577 0.206711 0)
(0.0252467 0.214718 0)
(0.0273484 0.223412 0)
(0.0295749 0.232831 0)
(0.0319394 0.243017 0)
(0.0344573 0.254018 0)
(0.0371455 0.265885 0)
(0.0400234 0.278676 0)
(0.0431133 0.292453 0)
(0.0464404 0.307288 0)
(0.0500342 0.323259 0)
(0.0539287 0.340455 0)
(0.0581639 0.358973 0)
(0.0627869 0.378926 0)
(0.0678538 0.400437 0)
(0.0734319 0.42365 0)
(0.0796024 0.448726 0)
(0.0864655 0.47585 0)
(0.0941454 0.505235 0)
(0.102797 0.537129 0)
(0.112618 0.571817 0)
(0.123868 0.609637 0)
(0.136885 0.650983 0)
(0.152132 0.696324 0)
(0.170247 0.746214 0)
(0.192135 0.801314 0)
(0.219166 0.862397 0)
(0.253411 0.930381 0)
(0.297966 1.00631 0)
(0.356836 1.09133 0)
(0.430346 1.1866 0)
(0.488902 1.29386 0)
(0.436044 1.42823 0)
(0.0993549 1.77287 0)
(-0.16582 1.24266 0)
(-0.522945 1.09173 0)
(-0.591043 1.04001 0)
(-0.549373 0.991177 0)
(-0.485078 0.939484 0)
(-0.425638 0.88716 0)
(-0.375191 0.836109 0)
(-0.332941 0.787386 0)
(-0.297439 0.741454 0)
(-0.26738 0.698456 0)
(-0.241702 0.658353 0)
(-0.219573 0.621018 0)
(-0.200338 0.586282 0)
(-0.183484 0.553966 0)
(-0.168607 0.523884 0)
(-0.155383 0.495865 0)
(-0.143555 0.469746 0)
(-0.132915 0.44538 0)
(-0.123292 0.422631 0)
(-0.114544 0.401375 0)
(-0.106559 0.3815 0)
(-0.0992395 0.362908 0)
(-0.0925042 0.345509 0)
(-0.0862839 0.329223 0)
(-0.0805192 0.313976 0)
(-0.075159 0.299701 0)
(-0.0701594 0.28634 0)
(-0.065482 0.273838 0)
(-0.0610933 0.262145 0)
(-0.0569637 0.251216 0)
(-0.0530668 0.241012 0)
(-0.0493795 0.231496 0)
(-0.0458809 0.222633 0)
(-0.0425525 0.214394 0)
(-0.0393777 0.20675 0)
(-0.0363411 0.199678 0)
(-0.0334287 0.193154 0)
(-0.030628 0.187158 0)
(-0.0279272 0.181673 0)
(-0.0253156 0.17668 0)
(-0.0227834 0.172167 0)
(-0.0203218 0.16812 0)
(-0.0179223 0.164528 0)
(-0.0155749 0.161362 0)
(-0.0132668 0.158596 0)
(-0.0109864 0.156243 0)
(-0.00872512 0.154316 0)
(-0.00647611 0.152813 0)
(-0.00423251 0.151732 0)
(-0.0019875 0.151071 0)
(0.000265859 0.150831 0)
(0.00253464 0.151014 0)
(0.00482611 0.151623 0)
(0.00714774 0.152663 0)
(0.00950723 0.154139 0)
(0.0119125 0.156059 0)
(0.0143719 0.158432 0)
(0.0168939 0.161266 0)
(0.0194876 0.164575 0)
(0.0221627 0.168372 0)
(0.0249294 0.17267 0)
(0.0277986 0.177488 0)
(0.0307822 0.182844 0)
(0.0338929 0.188758 0)
(0.0371445 0.195253 0)
(0.0405518 0.202355 0)
(0.0441314 0.210092 0)
(0.047901 0.218493 0)
(0.0518807 0.227593 0)
(0.0560924 0.237427 0)
(0.0605607 0.248037 0)
(0.065313 0.259466 0)
(0.0703802 0.271762 0)
(0.0757973 0.284979 0)
(0.0816038 0.299175 0)
(0.0878451 0.314413 0)
(0.0945731 0.330765 0)
(0.101848 0.348308 0)
(0.109739 0.367127 0)
(0.118327 0.387316 0)
(0.127709 0.408979 0)
(0.137999 0.432231 0)
(0.149332 0.457198 0)
(0.161872 0.48402 0)
(0.175817 0.512849 0)
(0.191412 0.543854 0)
(0.20896 0.577214 0)
(0.228837 0.613122 0)
(0.25152 0.651777 0)
(0.277616 0.693375 0)
(0.307901 0.73809 0)
(0.343371 0.786039 0)
(0.385295 0.837223 0)
(0.435236 0.891407 0)
(0.494855 0.947942 0)
(0.56464 1.00548 0)
(0.63727 1.06178 0)
(0.670696 1.11529 0)
(0.558797 1.18023 0)
(0.126688 1.41503 0)
(-0.182175 1.00606 0)
(-0.572513 0.887274 0)
(-0.665738 0.857284 0)
(-0.641254 0.83178 0)
(-0.586831 0.802985 0)
(-0.531512 0.771306 0)
(-0.481196 0.738038 0)
(-0.436508 0.70427 0)
(-0.397035 0.67078 0)
(-0.36218 0.638088 0)
(-0.331344 0.606524 0)
(-0.303984 0.576281 0)
(-0.279619 0.547459 0)
(-0.257835 0.520096 0)
(-0.238278 0.494185 0)
(-0.220646 0.469697 0)
(-0.204685 0.446583 0)
(-0.19018 0.424786 0)
(-0.176947 0.404245 0)
(-0.16483 0.384897 0)
(-0.153697 0.36668 0)
(-0.143433 0.349533 0)
(-0.133941 0.333398 0)
(-0.125136 0.318222 0)
(-0.116944 0.303954 0)
(-0.1093 0.290545 0)
(-0.102148 0.27795 0)
(-0.0954383 0.26613 0)
(-0.0891268 0.255044 0)
(-0.0831744 0.244658 0)
(-0.077546 0.23494 0)
(-0.0722104 0.225858 0)
(-0.0671395 0.217386 0)
(-0.0623078 0.209498 0)
(-0.0576922 0.202171 0)
(-0.0532717 0.195383 0)
(-0.0490268 0.189116 0)
(-0.0449397 0.183352 0)
(-0.040994 0.178074 0)
(-0.0371745 0.17327 0)
(-0.0334673 0.168926 0)
(-0.029859 0.165031 0)
(-0.0263378 0.161576 0)
(-0.022889 0.158523 0)
(-0.0194959 0.15584 0)
(-0.0161442 0.15355 0)
(-0.012822 0.151676 0)
(-0.00951889 0.150213 0)
(-0.00622471 0.149159 0)
(-0.00292933 0.148514 0)
(0.000377462 0.148279 0)
(0.00370606 0.148454 0)
(0.00706704 0.149043 0)
(0.0104712 0.150049 0)
(0.0139297 0.151478 0)
(0.0174539 0.153337 0)
(0.0210556 0.155633 0)
(0.0247472 0.158376 0)
(0.0285417 0.161576 0)
(0.0324527 0.165245 0)
(0.0364949 0.169396 0)
(0.0406837 0.174045 0)
(0.0450359 0.179207 0)
(0.0495694 0.184903 0)
(0.0543033 0.191151 0)
(0.0592587 0.197973 0)
(0.0644581 0.205395 0)
(0.0699266 0.213442 0)
(0.0756914 0.222142 0)
(0.0817827 0.231528 0)
(0.0882338 0.241631 0)
(0.095082 0.25249 0)
(0.102369 0.264143 0)
(0.11014 0.276633 0)
(0.118449 0.290005 0)
(0.127354 0.30431 0)
(0.136923 0.319599 0)
(0.147232 0.33593 0)
(0.158368 0.353362 0)
(0.170433 0.371959 0)
(0.183544 0.391789 0)
(0.197835 0.412921 0)
(0.213466 0.435427 0)
(0.230622 0.459378 0)
(0.249519 0.484842 0)
(0.270417 0.511882 0)
(0.293618 0.540548 0)
(0.319482 0.570869 0)
(0.348432 0.602839 0)
(0.380965 0.636398 0)
(0.417655 0.671407 0)
(0.459154 0.707608 0)
(0.506165 0.744567 0)
(0.559369 0.78161 0)
(0.619123 0.817743 0)
(0.684111 0.851621 0)
(0.744755 0.881863 0)
(0.757532 0.909311 0)
(0.616152 0.949418 0)
(0.145043 1.13977 0)
(-0.191249 0.83514 0)
(-0.599625 0.736563 0)
(-0.707452 0.716205 0)
(-0.694544 0.701166 0)
(-0.648764 0.683978 0)
(-0.599304 0.664187 0)
(-0.552457 0.642402 0)
(-0.5093 0.619304 0)
(-0.469867 0.59548 0)
(-0.433955 0.571404 0)
(-0.401293 0.547438 0)
(-0.371592 0.523853 0)
(-0.344564 0.500845 0)
(-0.319936 0.478551 0)
(-0.297455 0.45706 0)
(-0.276892 0.436427 0)
(-0.25804 0.416683 0)
(-0.240717 0.397838 0)
(-0.224758 0.379888 0)
(-0.21002 0.36282 0)
(-0.196376 0.346614 0)
(-0.183713 0.331247 0)
(-0.171931 0.316691 0)
(-0.160944 0.302919 0)
(-0.150673 0.289901 0)
(-0.141048 0.277608 0)
(-0.132007 0.266013 0)
(-0.123496 0.255087 0)
(-0.115465 0.244806 0)
(-0.107869 0.235143 0)
(-0.100668 0.226075 0)
(-0.093825 0.21758 0)
(-0.0873075 0.209637 0)
(-0.0810849 0.202226 0)
(-0.0751297 0.195329 0)
(-0.0694163 0.18893 0)
(-0.0639212 0.183013 0)
(-0.0586226 0.177564 0)
(-0.0535004 0.17257 0)
(-0.0485355 0.16802 0)
(-0.0437105 0.163903 0)
(-0.0390086 0.160211 0)
(-0.0344144 0.156936 0)
(-0.0299097 0.15403 0)
(-0.0254746 0.15146 0)
(-0.0210933 0.149258 0)
(-0.0167511 0.147451 0)
(-0.0124343 0.146038 0)
(-0.00812973 0.145016 0)
(-0.00382425 0.144385 0)
(0.000495348 0.144144 0)
(0.00484242 0.144295 0)
(0.0092305 0.144841 0)
(0.0136734 0.145785 0)
(0.0181853 0.147132 0)
(0.0227805 0.148887 0)
(0.0274742 0.151057 0)
(0.0322819 0.15365 0)
(0.03722 0.156676 0)
(0.0423057 0.160144 0)
(0.0475573 0.164066 0)
(0.0529942 0.168455 0)
(0.0586369 0.173325 0)
(0.0645076 0.178691 0)
(0.07063 0.18457 0)
(0.0770295 0.190981 0)
(0.0837338 0.197942 0)
(0.090773 0.205476 0)
(0.0981798 0.213604 0)
(0.10599 0.222352 0)
(0.114244 0.231744 0)
(0.122983 0.24181 0)
(0.132258 0.252577 0)
(0.14212 0.264076 0)
(0.15263 0.276339 0)
(0.163853 0.2894 0)
(0.175863 0.303291 0)
(0.188744 0.318049 0)
(0.202589 0.333706 0)
(0.217504 0.350297 0)
(0.233608 0.367852 0)
(0.251037 0.3864 0)
(0.269942 0.405963 0)
(0.290498 0.426553 0)
(0.3129 0.448173 0)
(0.33737 0.470805 0)
(0.364156 0.494409 0)
(0.393535 0.518912 0)
(0.425808 0.544196 0)
(0.461303 0.570087 0)
(0.500361 0.596333 0)
(0.543322 0.622591 0)
(0.59049 0.6484 0)
(0.642066 0.673168 0)
(0.69787 0.696169 0)
(0.756062 0.716608 0)
(0.806609 0.733988 0)
(0.806091 0.750089 0)
(0.647915 0.778752 0)
(0.155736 0.939107 0)
(-0.196848 0.704598 0)
(-0.616191 0.620543 0)
(-0.73327 0.605439 0)
(-0.728156 0.595735 0)
(-0.688826 0.584765 0)
(-0.644444 0.57181 0)
(-0.601364 0.557118 0)
(-0.560776 0.541076 0)
(-0.522865 0.524059 0)
(-0.487596 0.506404 0)
(-0.454866 0.488397 0)
(-0.424537 0.47028 0)
(-0.396455 0.452246 0)
(-0.370458 0.434448 0)
(-0.346382 0.417006 0)
(-0.324072 0.40001 0)
(-0.303376 0.383527 0)
(-0.284156 0.367603 0)
(-0.26628 0.352271 0)
(-0.249629 0.337548 0)
(-0.234094 0.323446 0)
(-0.219576 0.309967 0)
(-0.205983 0.297108 0)
(-0.193234 0.284861 0)
(-0.181253 0.273217 0)
(-0.169974 0.262163 0)
(-0.159335 0.251686 0)
(-0.14928 0.241771 0)
(-0.139757 0.232403 0)
(-0.130722 0.223567 0)
(-0.12213 0.215247 0)
(-0.113944 0.20743 0)
(-0.106127 0.200102 0)
(-0.0986471 0.193248 0)
(-0.0914729 0.186855 0)
(-0.0845764 0.180912 0)
(-0.0779313 0.175407 0)
(-0.071513 0.170331 0)
(-0.0652985 0.165672 0)
(-0.0592662 0.161422 0)
(-0.0533956 0.157575 0)
(-0.0476672 0.154121 0)
(-0.0420635 0.151056 0)
(-0.0365625 0.148326 0)
(-0.0311425 0.145891 0)
(-0.0257867 0.143799 0)
(-0.0204781 0.142079 0)
(-0.0152004 0.140729 0)
(-0.00993754 0.139747 0)
(-0.00467397 0.139134 0)
(0.00060611 0.138888 0)
(0.00591859 0.139012 0)
(0.0112796 0.139507 0)
(0.0167053 0.140376 0)
(0.0222126 0.141624 0)
(0.0278185 0.143254 0)
(0.0335406 0.145274 0)
(0.0393973 0.147688 0)
(0.0454078 0.150505 0)
(0.051592 0.153734 0)
(0.0579713 0.157382 0)
(0.0645679 0.161462 0)
(0.0714055 0.165984 0)
(0.0785094 0.17096 0)
(0.0859063 0.176404 0)
(0.0936251 0.182329 0)
(0.101697 0.188751 0)
(0.110155 0.195685 0)
(0.119035 0.203148 0)
(0.128377 0.211158 0)
(0.138224 0.219732 0)
(0.148621 0.22889 0)
(0.159621 0.238649 0)
(0.171278 0.24903 0)
(0.183655 0.260051 0)
(0.196818 0.27173 0)
(0.210841 0.284084 0)
(0.225807 0.297128 0)
(0.241805 0.310874 0)
(0.258935 0.325333 0)
(0.277307 0.340505 0)
(0.297041 0.356389 0)
(0.31827 0.372972 0)
(0.341139 0.390228 0)
(0.365805 0.408117 0)
(0.392439 0.426582 0)
(0.421222 0.445537 0)
(0.452343 0.46487 0)
(0.485998 0.484432 0)
(0.522379 0.504029 0)
(0.561667 0.523419 0)
(0.60402 0.542305 0)
(0.649547 0.560331 0)
(0.698254 0.577087 0)
(0.749798 0.592122 0)
(0.802223 0.605018 0)
(0.84544 0.615701 0)
(0.836186 0.626091 0)
(0.667384 0.648091 0)
(0.16255 0.785999 0)
(-0.200589 0.600435 0)
(-0.627093 0.527698 0)
(-0.750418 0.515905 0)
(-0.750715 0.509241 0)
(-0.716109 0.501874 0)
(-0.675721 0.493039 0)
(-0.635903 0.482817 0)
(-0.597859 0.471426 0)
(-0.561815 0.459097 0)
(-0.527799 0.446055 0)
(-0.495779 0.432505 0)
(-0.465696 0.418628 0)
(-0.43747 0.404585 0)
(-0.411011 0.390512 0)
(-0.386219 0.376522 0)
(-0.362991 0.362708 0)
(-0.341225 0.349147 0)
(-0.32082 0.335899 0)
(-0.301678 0.323012 0)
(-0.283706 0.31052 0)
(-0.266816 0.298452 0)
(-0.250924 0.286826 0)
(-0.235954 0.275654 0)
(-0.221834 0.264944 0)
(-0.208497 0.254699 0)
(-0.19588 0.24492 0)
(-0.183926 0.235604 0)
(-0.172583 0.226748 0)
(-0.161802 0.218344 0)
(-0.151536 0.210387 0)
(-0.141744 0.202869 0)
(-0.132387 0.195782 0)
(-0.123428 0.189119 0)
(-0.114833 0.18287 0)
(-0.106571 0.177028 0)
(-0.0986111 0.171586 0)
(-0.0909266 0.166535 0)
(-0.0834907 0.161869 0)
(-0.0762787 0.15758 0)
(-0.069267 0.153664 0)
(-0.0624333 0.150114 0)
(-0.055756 0.146925 0)
(-0.0492161 0.144094 0)
(-0.0427886 0.141557 0)
(-0.0364506 0.139278 0)
(-0.0301851 0.137313 0)
(-0.0239734 0.135694 0)
(-0.0177967 0.134419 0)
(-0.0116369 0.133486 0)
(-0.00547637 0.132895 0)
(0.000702788 0.132647 0)
(0.00691853 0.132742 0)
(0.013189 0.133182 0)
(0.0195326 0.13397 0)
(0.0259681 0.135108 0)
(0.0325147 0.1366 0)
(0.0391923 0.138452 0)
(0.0460211 0.140667 0)
(0.0530227 0.143253 0)
(0.0602191 0.146215 0)
(0.0676338 0.149561 0)
(0.0752912 0.153299 0)
(0.083217 0.157437 0)
(0.0914386 0.161984 0)
(0.0999849 0.16695 0)
(0.108887 0.172344 0)
(0.118176 0.178178 0)
(0.12789 0.184463 0)
(0.138064 0.191208 0)
(0.148741 0.198426 0)
(0.159962 0.206127 0)
(0.171776 0.214322 0)
(0.184233 0.22302 0)
(0.197388 0.232233 0)
(0.211301 0.241966 0)
(0.226036 0.252226 0)
(0.241663 0.263017 0)
(0.258257 0.274339 0)
(0.275899 0.286189 0)
(0.294677 0.298557 0)
(0.314686 0.31143 0)
(0.336027 0.324785 0)
(0.358808 0.338588 0)
(0.383142 0.352797 0)
(0.40915 0.367352 0)
(0.436953 0.38218 0)
(0.466679 0.397188 0)
(0.498451 0.412259 0)
(0.532388 0.427253 0)
(0.5686 0.442004 0)
(0.60718 0.456316 0)
(0.648195 0.469967 0)
(0.691673 0.482707 0)
(0.737557 0.49427 0)
(0.785467 0.504388 0)
(0.833438 0.512842 0)
(0.871387 0.519734 0)
(0.856166 0.526868 0)
(0.68016 0.544411 0)
(0.167236 0.664401 0)
(-0.203237 0.514692 0)
(-0.634645 0.451236 0)
(-0.762387 0.441747 0)
(-0.766559 0.436971 0)
(-0.735444 0.431836 0)
(-0.698133 0.425615 0)
(-0.660963 0.418311 0)
(-0.625131 0.410048 0)
(-0.590865 0.400972 0)
(-0.558211 0.39123 0)
(-0.527168 0.380963 0)
(-0.497711 0.370304 0)
(-0.4698 0.359372 0)
(-0.443384 0.348278 0)
(-0.418403 0.337117 0)
(-0.394791 0.325971 0)
(-0.372479 0.314913 0)
(-0.351396 0.304003 0)
(-0.331469 0.293291 0)
(-0.31263 0.282818 0)
(-0.294808 0.272619 0)
(-0.277938 0.26272 0)
(-0.261956 0.253142 0)
(-0.2468 0.243902 0)
(-0.232415 0.235011 0)
(-0.218744 0.226478 0)
(-0.205736 0.218308 0)
(-0.193344 0.210505 0)
(-0.181522 0.203069 0)
(-0.170228 0.196001 0)
(-0.15942 0.189299 0)
(-0.149061 0.18296 0)
(-0.139115 0.176982 0)
(-0.12955 0.171361 0)
(-0.120332 0.166092 0)
(-0.111433 0.161173 0)
(-0.102824 0.156598 0)
(-0.0944769 0.152364 0)
(-0.0863672 0.148467 0)
(-0.0784699 0.144902 0)
(-0.0707614 0.141668 0)
(-0.0632191 0.13876 0)
(-0.0558227 0.136176 0)
(-0.0485452 0.133846 0)
(-0.041363 0.131736 0)
(-0.0342597 0.129912 0)
(-0.0272148 0.128406 0)
(-0.0202078 0.127214 0)
(-0.0132191 0.126337 0)
(-0.00622943 0.125774 0)
(0.000780754 0.125526 0)
(0.00783099 0.125592 0)
(0.014941 0.125976 0)
(0.0221309 0.126678 0)
(0.029421 0.1277 0)
(0.036832 0.129047 0)
(0.0443855 0.130721 0)
(0.0521034 0.132725 0)
(0.0600086 0.135066 0)
(0.0681248 0.137746 0)
(0.0764767 0.140773 0)
(0.0850901 0.14415 0)
(0.0939922 0.147884 0)
(0.103211 0.151982 0)
(0.112777 0.156449 0)
(0.122722 0.161292 0)
(0.133079 0.166517 0)
(0.143883 0.172131 0)
(0.155174 0.17814 0)
(0.166989 0.18455 0)
(0.179374 0.191366 0)
(0.192372 0.198592 0)
(0.206034 0.206231 0)
(0.22041 0.214284 0)
(0.235556 0.222752 0)
(0.251532 0.231632 0)
(0.268401 0.240917 0)
(0.286228 0.250599 0)
(0.305084 0.260664 0)
(0.325046 0.271093 0)
(0.34619 0.281862 0)
(0.368599 0.292939 0)
(0.392358 0.304282 0)
(0.417555 0.315843 0)
(0.444277 0.327559 0)
(0.472612 0.339358 0)
(0.502647 0.351153 0)
(0.534462 0.362843 0)
(0.568131 0.37431 0)
(0.603717 0.385425 0)
(0.641268 0.39604 0)
(0.680814 0.405997 0)
(0.722353 0.415127 0)
(0.765812 0.42326 0)
(0.810814 0.430231 0)
(0.855406 0.435928 0)
(0.889517 0.440516 0)
(0.870083 0.445618 0)
(0.688951 0.459908 0)
(0.170647 0.564962 0)
(-0.205195 0.442459 0)
(-0.640071 0.386888 0)
(-0.77105 0.379119 0)
(-0.778069 0.375592 0)
(-0.749571 0.371917 0)
(-0.71463 0.367431 0)
(-0.679568 0.3621 0)
(-0.645568 0.355998 0)
(-0.612854 0.349219 0)
(-0.581473 0.341859 0)
(-0.551432 0.334016 0)
(-0.522722 0.325785 0)
(-0.495322 0.317253 0)
(-0.469202 0.308506 0)
(-0.444324 0.299617 0)
(-0.420646 0.290658 0)
(-0.39812 0.281687 0)
(-0.376695 0.272761 0)
(-0.35632 0.263925 0)
(-0.336942 0.25522 0)
(-0.318506 0.246681 0)
(-0.300961 0.238337 0)
(-0.284255 0.230213 0)
(-0.268338 0.222329 0)
(-0.253161 0.2147 0)
(-0.238677 0.20734 0)
(-0.224841 0.20026 0)
(-0.21161 0.193468 0)
(-0.198944 0.186968 0)
(-0.186802 0.180766 0)
(-0.175148 0.174865 0)
(-0.163946 0.169265 0)
(-0.153162 0.163968 0)
(-0.142763 0.158973 0)
(-0.13272 0.15428 0)
(-0.123002 0.149887 0)
(-0.113581 0.145794 0)
(-0.10443 0.141999 0)
(-0.0955237 0.1385 0)
(-0.0868362 0.135295 0)
(-0.0783437 0.132384 0)
(-0.0700228 0.129764 0)
(-0.0618532 0.127434 0)
(-0.0538056 0.125317 0)
(-0.0458567 0.123384 0)
(-0.0379914 0.121711 0)
(-0.0301874 0.120325 0)
(-0.0224232 0.119225 0)
(-0.014678 0.118409 0)
(-0.00693128 0.117878 0)
(0.000837598 0.117632 0)
(0.00864937 0.117673 0)
(0.016525 0.118 0)
(0.0244856 0.118615 0)
(0.0325527 0.119521 0)
(0.0407484 0.120719 0)
(0.049095 0.122211 0)
(0.0576156 0.124001 0)
(0.0663341 0.126092 0)
(0.0752752 0.128485 0)
(0.0844643 0.131186 0)
(0.0939279 0.134198 0)
(0.103694 0.137523 0)
(0.113791 0.141167 0)
(0.124249 0.145132 0)
(0.1351 0.149422 0)
(0.146377 0.154041 0)
(0.158116 0.15899 0)
(0.170352 0.164273 0)
(0.183126 0.16989 0)
(0.196477 0.175843 0)
(0.210449 0.18213 0)
(0.225088 0.18875 0)
(0.240441 0.1957 0)
(0.256558 0.202972 0)
(0.273493 0.210559 0)
(0.291302 0.218449 0)
(0.310041 0.226628 0)
(0.329772 0.235076 0)
(0.350557 0.243771 0)
(0.37246 0.252684 0)
(0.395548 0.261779 0)
(0.419886 0.271017 0)
(0.445542 0.280348 0)
(0.472581 0.289716 0)
(0.501066 0.299057 0)
(0.531059 0.308296 0)
(0.562614 0.31735 0)
(0.595778 0.326129 0)
(0.630591 0.334534 0)
(0.667081 0.342457 0)
(0.705262 0.349787 0)
(0.745125 0.356411 0)
(0.786599 0.362217 0)
(0.829318 0.367101 0)
(0.871342 0.371008 0)
(0.902609 0.37412 0)
(0.880124 0.377867 0)
(0.695208 0.389644 0)
(0.173239 0.481853 0)
(-0.206691 0.380482 0)
(-0.644074 0.331791 0)
(-0.777491 0.32537 0)
(-0.786643 0.322714 0)
(-0.760138 0.320034 0)
(-0.727033 0.316742 0)
(-0.69364 0.31279 0)
(-0.661131 0.308221 0)
(-0.629721 0.303096 0)
(-0.599455 0.297482 0)
(-0.570339 0.291446 0)
(-0.542371 0.285055 0)
(-0.515536 0.278374 0)
(-0.489817 0.271467 0)
(-0.465188 0.264391 0)
(-0.441619 0.257201 0)
(-0.419077 0.249948 0)
(-0.397524 0.242677 0)
(-0.376923 0.235429 0)
(-0.357232 0.228241 0)
(-0.33841 0.221146 0)
(-0.320414 0.21417 0)
(-0.303204 0.207339 0)
(-0.286738 0.200673 0)
(-0.270974 0.194191 0)
(-0.255873 0.187909 0)
(-0.241395 0.181837 0)
(-0.227504 0.175988 0)
(-0.214161 0.170369 0)
(-0.201333 0.164988 0)
(-0.188983 0.15985 0)
(-0.177081 0.15496 0)
(-0.165593 0.15032 0)
(-0.154489 0.145934 0)
(-0.14374 0.141802 0)
(-0.133318 0.137927 0)
(-0.123194 0.134308 0)
(-0.113342 0.130946 0)
(-0.103737 0.127842 0)
(-0.0943527 0.124995 0)
(-0.0851661 0.122405 0)
(-0.0761531 0.120072 0)
(-0.0672938 0.117996 0)
(-0.058557 0.116093 0)
(-0.0499206 0.114343 0)
(-0.0413706 0.112826 0)
(-0.0328835 0.111566 0)
(-0.0244369 0.11056 0)
(-0.0160095 0.10981 0)
(-0.0075799 0.109315 0)
(0.000873318 0.109076 0)
(0.0093717 0.109093 0)
(0.017937 0.109367 0)
(0.0265911 0.109898 0)
(0.0353564 0.110689 0)
(0.0442555 0.11174 0)
(0.0533116 0.113053 0)
(0.0625484 0.11463 0)
(0.0719901 0.116472 0)
(0.0816619 0.118583 0)
(0.0915896 0.120962 0)
(0.1018 0.123613 0)
(0.112321 0.126537 0)
(0.12318 0.129736 0)
(0.134409 0.133212 0)
(0.146038 0.136964 0)
(0.158099 0.140995 0)
(0.170626 0.145304 0)
(0.183655 0.149891 0)
(0.197223 0.154753 0)
(0.211367 0.159889 0)
(0.226128 0.165294 0)
(0.241549 0.170964 0)
(0.257672 0.176891 0)
(0.274542 0.183065 0)
(0.292207 0.189476 0)
(0.310716 0.196109 0)
(0.330117 0.202947 0)
(0.350463 0.20997 0)
(0.371806 0.217153 0)
(0.394199 0.224467 0)
(0.417695 0.231879 0)
(0.442347 0.239352 0)
(0.468207 0.246841 0)
(0.495325 0.254299 0)
(0.52375 0.26167 0)
(0.553525 0.268896 0)
(0.584691 0.27591 0)
(0.617281 0.282644 0)
(0.651323 0.289023 0)
(0.686837 0.29497 0)
(0.723833 0.300408 0)
(0.762302 0.305257 0)
(0.80218 0.309443 0)
(0.843113 0.3129 0)
(0.883172 0.315602 0)
(0.912301 0.317728 0)
(0.887559 0.320525 0)
(0.699775 0.330287 0)
(0.175271 0.411182 0)
(-0.207865 0.32648 0)
(-0.647084 0.28392 0)
(-0.782377 0.278597 0)
(-0.793151 0.276571 0)
(-0.768183 0.274595 0)
(-0.736509 0.272152 0)
(-0.704438 0.269189 0)
(-0.673133 0.265733 0)
(-0.642801 0.261826 0)
(-0.61348 0.257512 0)
(-0.585177 0.252839 0)
(-0.557887 0.247856 0)
(-0.531602 0.242611 0)
(-0.506308 0.237149 0)
(-0.481985 0.231516 0)
(-0.458612 0.225755 0)
(-0.436163 0.219905 0)
(-0.41461 0.214005 0)
(-0.393923 0.208088 0)
(-0.37407 0.202186 0)
(-0.355018 0.196327 0)
(-0.336732 0.190537 0)
(-0.319179 0.184838 0)
(-0.302324 0.179251 0)
(-0.286132 0.173793 0)
(-0.270568 0.16848 0)
(-0.2556 0.163324 0)
(-0.241193 0.158338 0)
(-0.227316 0.153531 0)
(-0.213936 0.148913 0)
(-0.201022 0.144489 0)
(-0.188544 0.140265 0)
(-0.176472 0.136248 0)
(-0.164777 0.13244 0)
(-0.153433 0.128845 0)
(-0.14241 0.125465 0)
(-0.131684 0.122304 0)
(-0.121228 0.119361 0)
(-0.111017 0.11664 0)
(-0.101027 0.114141 0)
(-0.0912329 0.111865 0)
(-0.0816121 0.109812 0)
(-0.0721448 0.107984 0)
(-0.0627986 0.106294 0)
(-0.0535528 0.104726 0)
(-0.0443952 0.103368 0)
(-0.0353007 0.102235 0)
(-0.0262469 0.101328 0)
(-0.0172118 0.100647 0)
(-0.00817369 0.100191 0)
(0.000889379 0.0999619 0)
(0.00999941 0.099959 0)
(0.0191786 0.100183 0)
(0.0284494 0.100635 0)
(0.0378345 0.101315 0)
(0.0473569 0.102225 0)
(0.0570401 0.103365 0)
(0.066908 0.104736 0)
(0.0769852 0.10634 0)
(0.0872968 0.108176 0)
(0.0978686 0.110246 0)
(0.108727 0.11255 0)
(0.1199 0.115088 0)
(0.131415 0.117862 0)
(0.143301 0.12087 0)
(0.15559 0.124113 0)
(0.168311 0.127588 0)
(0.181497 0.131294 0)
(0.195183 0.135229 0)
(0.209402 0.139389 0)
(0.22419 0.143769 0)
(0.239584 0.148364 0)
(0.255623 0.153165 0)
(0.272346 0.158166 0)
(0.289794 0.163354 0)
(0.308008 0.168717 0)
(0.32703 0.174239 0)
(0.346905 0.179905 0)
(0.367676 0.185692 0)
(0.389388 0.191579 0)
(0.412084 0.197538 0)
(0.435809 0.20354 0)
(0.460605 0.209551 0)
(0.486516 0.215534 0)
(0.513581 0.22145 0)
(0.541839 0.227254 0)
(0.571323 0.232898 0)
(0.602067 0.238332 0)
(0.634096 0.243504 0)
(0.667435 0.248358 0)
(0.702098 0.25284 0)
(0.738097 0.256892 0)
(0.775428 0.260461 0)
(0.814032 0.263495 0)
(0.853566 0.265951 0)
(0.89211 0.267819 0)
(0.919609 0.269266 0)
(0.893175 0.271367 0)
(0.703171 0.279467 0)
(0.176903 0.350205 0)
(-0.208804 0.278782 0)
(-0.649376 0.241785 0)
(-0.786138 0.23738 0)
(-0.798161 0.235827 0)
(-0.774385 0.234362 0)
(-0.743835 0.232538 0)
(-0.712814 0.230303 0)
(-0.682477 0.227674 0)
(-0.653025 0.224679 0)
(-0.624493 0.22135 0)
(-0.596882 0.217721 0)
(-0.570189 0.213827 0)
(-0.544404 0.209703 0)
(-0.519516 0.205385 0)
(-0.495509 0.200906 0)
(-0.472364 0.196299 0)
(-0.450062 0.191596 0)
(-0.428579 0.186828 0)
(-0.407891 0.182021 0)
(-0.387971 0.177203 0)
(-0.368793 0.172397 0)
(-0.350328 0.167626 0)
(-0.332547 0.162909 0)
(-0.315421 0.158265 0)
(-0.29892 0.15371 0)
(-0.283014 0.149259 0)
(-0.267674 0.144924 0)
(-0.25287 0.140718 0)
(-0.238573 0.13665 0)
(-0.224754 0.132729 0)
(-0.211385 0.128962 0)
(-0.198438 0.125356 0)
(-0.185886 0.121918 0)
(-0.173702 0.118651 0)
(-0.161859 0.115561 0)
(-0.150332 0.11265 0)
(-0.139096 0.109921 0)
(-0.128124 0.107378 0)
(-0.117394 0.105023 0)
(-0.106882 0.102856 0)
(-0.0965628 0.100881 0)
(-0.0864141 0.0990981 0)
(-0.0764175 0.0975089 0)
(-0.0665388 0.0960257 0)
(-0.0567598 0.0946394 0)
(-0.0470694 0.0934391 0)
(-0.0374417 0.0924351 0)
(-0.0278541 0.0916277 0)
(-0.0182844 0.091017 0)
(-0.00871082 0.0906035 0)
(0.000888934 0.0903874 0)
(0.0105371 0.090369 0)
(0.020256 0.0905488 0)
(0.0300683 0.0909272 0)
(0.0399969 0.0915044 0)
(0.0500649 0.092281 0)
(0.0602958 0.0932572 0)
(0.0707135 0.0944334 0)
(0.0813426 0.0958097 0)
(0.0922078 0.0973862 0)
(0.103335 0.0991629 0)
(0.11475 0.101139 0)
(0.126479 0.103315 0)
(0.138551 0.105689 0)
(0.150994 0.10826 0)
(0.163836 0.111027 0)
(0.177108 0.113986 0)
(0.190839 0.117135 0)
(0.205063 0.12047 0)
(0.219811 0.123987 0)
(0.235117 0.12768 0)
(0.251014 0.131541 0)
(0.267539 0.135564 0)
(0.284726 0.139737 0)
(0.302613 0.144052 0)
(0.321236 0.148494 0)
(0.340633 0.15305 0)
(0.360842 0.157702 0)
(0.381902 0.162432 0)
(0.40385 0.167219 0)
(0.426725 0.17204 0)
(0.450563 0.176869 0)
(0.475403 0.181678 0)
(0.501278 0.186436 0)
(0.528223 0.191111 0)
(0.55627 0.195667 0)
(0.585449 0.200068 0)
(0.615786 0.204273 0)
(0.647306 0.208245 0)
(0.68003 0.211941 0)
(0.713974 0.215321 0)
(0.749151 0.218344 0)
(0.78556 0.220973 0)
(0.823151 0.223172 0)
(0.861586 0.224911 0)
(0.898952 0.226189 0)
(0.925198 0.227155 0)
(0.897478 0.228732 0)
(0.705733 0.235432 0)
(0.178233 0.296905 0)
(-0.209567 0.236115 0)
(-0.651136 0.204246 0)
(-0.789059 0.200626 0)
(-0.802051 0.199437 0)
(-0.779209 0.198353 0)
(-0.749544 0.19699 0)
(-0.719357 0.195303 0)
(-0.689797 0.1933 0)
(-0.661059 0.191002 0)
(-0.633175 0.188431 0)
(-0.606144 0.185613 0)
(-0.57996 0.182572 0)
(-0.554613 0.179336 0)
(-0.530092 0.175929 0)
(-0.506382 0.172378 0)
(-0.483467 0.16871 0)
(-0.46133 0.164947 0)
(-0.439951 0.161115 0)
(-0.419309 0.157235 0)
(-0.399381 0.153329 0)
(-0.380145 0.149418 0)
(-0.361575 0.145519 0)
(-0.343647 0.14165 0)
(-0.326335 0.137827 0)
(-0.309613 0.134064 0)
(-0.293455 0.130375 0)
(-0.277835 0.126771 0)
(-0.262726 0.123262 0)
(-0.248102 0.11986 0)
(-0.233937 0.116571 0)
(-0.220205 0.113403 0)
(-0.20688 0.110364 0)
(-0.193937 0.10746 0)
(-0.18135 0.104694 0)
(-0.169095 0.102073 0)
(-0.157147 0.099599 0)
(-0.145483 0.0972768 0)
(-0.134078 0.095109 0)
(-0.122908 0.0930983 0)
(-0.111951 0.0912469 0)
(-0.101183 0.089557 0)
(-0.0905824 0.0880303 0)
(-0.0801305 0.0866685 0)
(-0.0697928 0.0853853 0)
(-0.059553 0.0841773 0)
(-0.049402 0.0831323 0)
(-0.0393124 0.0822558 0)
(-0.0292618 0.081548 0)
(-0.0192282 0.0810094 0)
(-0.00918958 0.0806402 0)
(0.000876226 0.080441 0)
(0.0109915 0.0804118 0)
(0.0211786 0.0805529 0)
(0.0314602 0.0808646 0)
(0.0418591 0.0813469 0)
(0.0523984 0.082 0)
(0.0631015 0.0828237 0)
(0.0739921 0.0838179 0)
(0.0850943 0.0849823 0)
(0.096433 0.0863166 0)
(0.108033 0.0878199 0)
(0.11992 0.0894915 0)
(0.13212 0.09133 0)
(0.14466 0.0933339 0)
(0.157568 0.0955012 0)
(0.17087 0.0978295 0)
(0.184596 0.100316 0)
(0.198775 0.102956 0)
(0.213437 0.105747 0)
(0.228611 0.108682 0)
(0.24433 0.111757 0)
(0.260625 0.114963 0)
(0.277529 0.118292 0)
(0.295073 0.121737 0)
(0.313291 0.125285 0)
(0.332218 0.128926 0)
(0.351885 0.132645 0)