/*--------------------------------*- C++ -*----------------------------------*\
  =========                 |
  \\      /  F ield         | OpenFOAM: The Open Source CFD Toolbox
   \\    /   O peration     | Website:  https://openfoam.org
    \\  /    A nd           | Version:  10
     \\/     M anipulation  |
\*---------------------------------------------------------------------------*/
FoamFile
{
    format      ascii;
    class       volScalarField;
    location    "10";
    object      nut;
}
// * * * * * * * * * * * * * * * * * * * * * * * * * * * * * * * * * * * * * //

dimensions      [0 2 -1 0 0 0 0];

internalField   nonuniform List<scalar> 
38016
(
2.42402e-08
2.42402e-08
2.42401e-08
2.42402e-08
2.42402e-08
2.42401e-08
2.42401e-08
2.42402e-08
2.42402e-08
2.42402e-08
2.42418e-08
2.42427e-08
2.42445e-08
2.42472e-08
2.42522e-08
2.42516e-08
2.42519e-08
2.4259e-08
2.42595e-08
2.42679e-08
2.4274e-08
2.42848e-08
2.43013e-08
2.43037e-08
2.43349e-08
2.43471e-08
2.4364e-08
2.43598e-08
2.43628e-08
2.43788e-08
2.43409e-08
2.43792e-08
2.43483e-08
2.4385e-08
2.44193e-08
2.44715e-08
2.44517e-08
2.45818e-08
2.47925e-08
2.47794e-08
2.48853e-08
2.48499e-08
2.48884e-08
2.51313e-08
2.61861e-08
2.64615e-08
2.59112e-08
2.58335e-08
2.42402e-08
2.42402e-08
2.42401e-08
2.42402e-08
2.42402e-08
2.42401e-08
2.42401e-08
2.42402e-08
2.42402e-08
2.42402e-08
2.42417e-08
2.42425e-08
2.42438e-08
2.42461e-08
2.42511e-08
2.4252e-08
2.42512e-08
2.42603e-08
2.42587e-08
2.4269e-08
2.42735e-08
2.42864e-08
2.43058e-08
2.43007e-08
2.43205e-08
2.43532e-08
2.43701e-08
2.4369e-08
2.43632e-08
2.44005e-08
2.43327e-08
2.43808e-08
2.43868e-08
2.44348e-08
2.44548e-08
2.45035e-08
2.44375e-08
2.45568e-08
2.47657e-08
2.48777e-08
2.49548e-08
2.49098e-08
2.49862e-08
2.51477e-08
2.63042e-08
2.65837e-08
2.60193e-08
2.59158e-08
2.42402e-08
2.42402e-08
2.42401e-08
2.42402e-08
2.42402e-08
2.42401e-08
2.42401e-08
2.42402e-08
2.42403e-08
2.42402e-08
2.42418e-08
2.42425e-08
2.42438e-08
2.42462e-08
2.42494e-08
2.42525e-08
2.42512e-08
2.42599e-08
2.42588e-08
2.42687e-08
2.42747e-08
2.4287e-08
2.43029e-08
2.4299e-08
2.43273e-08
2.43529e-08
2.43681e-08
2.4363e-08
2.43791e-08
2.44083e-08
2.4338e-08
2.43781e-08
2.44015e-08
2.44456e-08
2.448e-08
2.45376e-08
2.44447e-08
2.46069e-08
2.47477e-08
2.49495e-08
2.48168e-08
2.47717e-08
2.4972e-08
2.512e-08
2.62444e-08
2.61768e-08
2.58213e-08
2.58382e-08
2.42402e-08
2.42402e-08
2.42401e-08
2.42402e-08
2.42401e-08
2.42401e-08
2.42401e-08
2.42402e-08
2.42403e-08
2.42403e-08
2.42419e-08
2.42427e-08
2.4244e-08
2.42463e-08
2.42494e-08
2.42517e-08
2.42515e-08
2.42602e-08
2.42594e-08
2.42688e-08
2.42779e-08
2.42904e-08
2.43002e-08
2.42989e-08
2.43226e-08
2.43604e-08
2.43693e-08
2.43663e-08
2.43771e-08
2.44067e-08
2.43297e-08
2.4356e-08
2.44143e-08
2.44396e-08
2.4513e-08
2.45287e-08
2.44747e-08
2.45591e-08
2.4774e-08
2.4903e-08
2.48236e-08
2.48109e-08
2.49724e-08
2.51252e-08
2.59861e-08
2.59462e-08
2.54642e-08
2.56118e-08
2.42402e-08
2.42402e-08
2.42401e-08
2.42402e-08
2.42401e-08
2.42401e-08
2.42402e-08
2.42402e-08
2.42403e-08
2.42404e-08
2.4242e-08
2.42427e-08
2.42444e-08
2.4247e-08
2.42494e-08
2.42514e-08
2.42541e-08
2.42602e-08
2.42593e-08
2.42699e-08
2.42822e-08
2.42895e-08
2.43004e-08
2.43033e-08
2.43226e-08
2.43513e-08
2.43827e-08
2.43723e-08
2.43904e-08
2.44121e-08
2.43398e-08
2.43747e-08
2.44593e-08
2.44409e-08
2.45002e-08
2.45281e-08
2.45356e-08
2.45069e-08
2.47903e-08
2.48632e-08
2.48864e-08
2.4846e-08
2.50801e-08
2.52993e-08
2.58363e-08
2.55582e-08
2.50634e-08
2.53309e-08
2.42402e-08
2.42402e-08
2.42401e-08
2.42402e-08
2.42401e-08
2.42401e-08
2.42402e-08
2.42402e-08
2.42403e-08
2.42404e-08
2.42421e-08
2.42429e-08
2.42449e-08
2.42475e-08
2.42494e-08
2.42516e-08
2.42552e-08
2.42617e-08
2.42621e-08
2.42733e-08
2.42861e-08
2.42902e-08
2.43073e-08
2.43061e-08
2.43301e-08
2.43686e-08
2.43837e-08
2.43734e-08
2.4397e-08
2.44228e-08
2.43608e-08
2.43907e-08
2.44927e-08
2.44502e-08
2.45019e-08
2.44957e-08
2.45531e-08
2.44817e-08
2.47691e-08
2.4792e-08
2.48299e-08
2.48517e-08
2.5244e-08
2.53763e-08
2.57775e-08
2.53886e-08
2.49514e-08
2.51603e-08
2.42402e-08
2.42402e-08
2.42402e-08
2.42402e-08
2.42402e-08
2.42401e-08
2.42402e-08
2.42402e-08
2.42403e-08
2.42404e-08
2.42421e-08
2.4243e-08
2.42453e-08
2.42468e-08
2.42496e-08
2.42511e-08
2.42561e-08
2.4262e-08
2.42633e-08
2.42733e-08
2.42919e-08
2.42986e-08
2.43211e-08
2.431e-08
2.4341e-08
2.43787e-08
2.43989e-08
2.43785e-08
2.44117e-08
2.444e-08
2.44029e-08
2.44037e-08
2.44798e-08
2.44525e-08
2.4509e-08
2.45163e-08
2.44942e-08
2.44634e-08
2.47176e-08
2.47793e-08
2.49715e-08
2.48787e-08
2.53163e-08
2.53665e-08
2.57615e-08
2.5371e-08
2.48534e-08
2.50334e-08
2.42401e-08
2.42402e-08
2.42401e-08
2.42402e-08
2.42402e-08
2.42401e-08
2.42402e-08
2.42403e-08
2.42403e-08
2.42404e-08
2.42421e-08
2.42433e-08
2.42457e-08
2.42466e-08
2.42495e-08
2.4252e-08
2.42562e-08
2.42631e-08
2.42617e-08
2.42767e-08
2.42925e-08
2.43035e-08
2.43276e-08
2.43209e-08
2.43572e-08
2.43946e-08
2.44306e-08
2.44078e-08
2.44474e-08
2.44736e-08
2.4441e-08
2.44317e-08
2.44797e-08
2.44918e-08
2.45008e-08
2.45127e-08
2.45241e-08
2.44615e-08
2.47011e-08
2.47949e-08
2.48849e-08
2.48561e-08
2.53629e-08
2.53125e-08
2.59205e-08
2.53834e-08
2.47703e-08
2.50182e-08
2.42401e-08
2.42402e-08
2.42401e-08
2.42402e-08
2.42402e-08
2.42401e-08
2.42402e-08
2.42403e-08
2.42404e-08
2.42405e-08
2.42422e-08
2.42433e-08
2.42447e-08
2.42465e-08
2.42487e-08
2.42506e-08
2.42561e-08
2.42642e-08
2.42643e-08
2.42789e-08
2.4294e-08
2.43014e-08
2.43243e-08
2.43215e-08
2.4369e-08
2.44032e-08
2.4437e-08
2.44149e-08
2.44723e-08
2.44798e-08
2.44772e-08
2.4443e-08
2.4484e-08
2.45017e-08
2.45229e-08
2.45117e-08
2.45107e-08
2.44756e-08
2.47044e-08
2.48497e-08
2.50081e-08
2.48221e-08
2.50113e-08
2.52952e-08
2.55404e-08
2.54532e-08
2.48022e-08
2.48921e-08
2.42401e-08
2.42402e-08
2.42402e-08
2.42402e-08
2.42401e-08
2.42401e-08
2.42402e-08
2.42403e-08
2.42404e-08
2.42406e-08
2.42422e-08
2.42429e-08
2.42445e-08
2.42461e-08
2.42482e-08
2.42503e-08
2.42552e-08
2.42658e-08
2.42636e-08
2.4279e-08
2.42987e-08
2.43055e-08
2.43276e-08
2.43328e-08
2.43716e-08
2.44064e-08
2.44383e-08
2.44224e-08
2.44782e-08
2.451e-08
2.44995e-08
2.44483e-08
2.44823e-08
2.45025e-08
2.45264e-08
2.44817e-08
2.45626e-08
2.44719e-08
2.47199e-08
2.48956e-08
2.51754e-08
2.47925e-08
2.51082e-08
2.56009e-08
2.59066e-08
2.56908e-08
2.48712e-08
2.49854e-08
2.42401e-08
2.42402e-08
2.42401e-08
2.42402e-08
2.42401e-08
2.42401e-08
2.42402e-08
2.42403e-08
2.42404e-08
2.42406e-08
2.42421e-08
2.42431e-08
2.42444e-08
2.42457e-08
2.42476e-08
2.42499e-08
2.42571e-08
2.42666e-08
2.42634e-08
2.428e-08
2.42915e-08
2.43034e-08
2.43327e-08
2.43316e-08
2.43912e-08
2.44263e-08
2.4463e-08
2.44465e-08
2.44752e-08
2.45339e-08
2.4565e-08
2.448e-08
2.44977e-08
2.44962e-08
2.4518e-08
2.45067e-08
2.46781e-08
2.45535e-08
2.46845e-08
2.49772e-08
2.50917e-08
2.4788e-08
2.51078e-08
2.57334e-08
2.55277e-08
2.56213e-08
2.48522e-08
2.48012e-08
2.42401e-08
2.42402e-08
2.42402e-08
2.42402e-08
2.42401e-08
2.42402e-08
2.42402e-08
2.42403e-08
2.42405e-08
2.42406e-08
2.4242e-08
2.4243e-08
2.42438e-08
2.42458e-08
2.42472e-08
2.42493e-08
2.42548e-08
2.42626e-08
2.42645e-08
2.42836e-08
2.429e-08
2.43123e-08
2.43419e-08
2.43506e-08
2.44182e-08
2.44538e-08
2.44959e-08
2.44705e-08
2.45003e-08
2.45448e-08
2.45419e-08
2.45293e-08
2.44862e-08
2.45076e-08
2.45093e-08
2.44841e-08
2.47603e-08
2.46055e-08
2.47257e-08
2.48852e-08
2.50076e-08
2.48273e-08
2.51698e-08
2.54811e-08
2.58139e-08
2.6036e-08
2.49332e-08
2.4751e-08
2.42401e-08
2.42401e-08
2.42401e-08
2.42402e-08
2.42401e-08
2.42402e-08
2.42402e-08
2.42403e-08
2.42405e-08
2.42407e-08
2.42421e-08
2.42427e-08
2.42435e-08
2.42453e-08
2.4247e-08
2.4248e-08
2.4255e-08
2.42634e-08
2.42598e-08
2.42785e-08
2.4286e-08
2.43199e-08
2.43479e-08
2.43735e-08
2.43928e-08
2.44353e-08
2.45057e-08
2.44739e-08
2.44917e-08
2.45309e-08
2.45289e-08
2.45697e-08
2.45198e-08
2.45619e-08
2.45747e-08
2.45319e-08
2.48745e-08
2.45983e-08
2.47364e-08
2.50007e-08
2.49739e-08
2.47966e-08
2.50373e-08
2.52768e-08
2.58036e-08
2.56896e-08
2.50075e-08
2.49321e-08
2.42401e-08
2.42401e-08
2.42401e-08
2.42402e-08
2.42402e-08
2.42402e-08
2.42402e-08
2.42403e-08
2.42405e-08
2.42407e-08
2.42418e-08
2.42425e-08
2.42432e-08
2.42447e-08
2.42467e-08
2.42485e-08
2.4255e-08
2.42625e-08
2.42625e-08
2.42786e-08
2.42853e-08
2.43129e-08
2.43419e-08
2.43751e-08
2.4399e-08
2.44545e-08
2.44867e-08
2.44973e-08
2.44866e-08
2.45475e-08
2.45452e-08
2.45595e-08
2.45347e-08
2.46205e-08
2.45998e-08
2.45154e-08
2.48796e-08
2.46339e-08
2.48067e-08
2.50468e-08
2.49615e-08
2.49142e-08
2.50758e-08
2.51187e-08
2.58392e-08
2.59568e-08
2.51288e-08
2.46826e-08
2.42401e-08
2.42401e-08
2.42401e-08
2.42402e-08
2.42402e-08
2.42402e-08
2.42403e-08
2.42403e-08
2.42405e-08
2.42407e-08
2.42417e-08
2.42425e-08
2.42433e-08
2.42449e-08
2.42472e-08
2.42486e-08
2.42536e-08
2.42616e-08
2.42619e-08
2.42737e-08
2.42866e-08
2.43163e-08
2.43426e-08
2.43656e-08
2.43959e-08
2.44418e-08
2.44829e-08
2.45774e-08
2.45383e-08
2.45393e-08
2.45344e-08
2.45288e-08
2.45752e-08
2.46854e-08
2.45493e-08
2.45334e-08
2.4911e-08
2.45827e-08
2.47881e-08
2.49457e-08
2.49216e-08
2.48032e-08
2.49461e-08
2.51057e-08
2.55336e-08
2.57261e-08
2.47564e-08
2.47998e-08
2.42401e-08
2.42401e-08
2.42401e-08
2.42401e-08
2.42402e-08
2.42402e-08
2.42403e-08
2.42404e-08
2.42406e-08
2.42408e-08
2.42418e-08
2.42422e-08
2.42432e-08
2.42453e-08
2.42466e-08
2.42496e-08
2.42548e-08
2.42633e-08
2.42646e-08
2.42731e-08
2.42875e-08
2.43129e-08
2.43459e-08
2.43613e-08
2.4414e-08
2.44407e-08
2.44968e-08
2.46101e-08
2.46018e-08
2.45635e-08
2.4525e-08
2.45613e-08
2.45437e-08
2.46655e-08
2.46002e-08
2.45265e-08
2.49409e-08
2.46294e-08
2.48162e-08
2.4886e-08
2.4854e-08
2.48478e-08
2.50761e-08
2.49204e-08
2.57264e-08
2.50859e-08
2.47714e-08
2.48671e-08
2.42401e-08
2.42401e-08
2.42401e-08
2.42402e-08
2.42402e-08
2.42402e-08
2.42403e-08
2.42404e-08
2.42406e-08
2.42409e-08
2.42417e-08
2.42424e-08
2.42439e-08
2.42455e-08
2.42461e-08
2.42491e-08
2.4254e-08
2.42607e-08
2.42658e-08
2.42723e-08
2.42888e-08
2.43213e-08
2.43417e-08
2.43699e-08
2.44244e-08
2.44515e-08
2.45114e-08
2.45672e-08
2.45885e-08
2.4578e-08
2.45458e-08
2.455e-08
2.45385e-08
2.46554e-08
2.46185e-08
2.45229e-08
2.49343e-08
2.46189e-08
2.473e-08
2.46617e-08
2.48713e-08
2.48658e-08
2.49882e-08
2.48798e-08
2.55647e-08
2.53131e-08
2.46616e-08
2.50611e-08
2.42401e-08
2.42401e-08
2.42401e-08
2.42401e-08
2.42402e-08
2.42402e-08
2.42403e-08
2.42405e-08
2.42406e-08
2.4241e-08
2.42417e-08
2.42419e-08
2.42434e-08
2.42441e-08
2.42458e-08
2.42492e-08
2.42555e-08
2.42626e-08
2.42675e-08
2.42741e-08
2.42925e-08
2.43214e-08
2.43364e-08
2.43872e-08
2.4403e-08
2.44732e-08
2.44987e-08
2.45594e-08
2.45904e-08
2.45725e-08
2.45783e-08
2.45645e-08
2.45264e-08
2.45989e-08
2.45764e-08
2.45373e-08
2.49306e-08
2.46232e-08
2.4736e-08
2.46805e-08
2.4832e-08
2.48397e-08
2.49283e-08
2.4953e-08
2.55429e-08
2.50856e-08
2.46938e-08
2.58321e-08
2.42401e-08
2.42402e-08
2.42401e-08
2.42402e-08
2.42402e-08
2.42402e-08
2.42404e-08
2.42405e-08
2.42407e-08
2.42411e-08
2.42415e-08
2.42422e-08
2.42433e-08
2.42454e-08
2.42468e-08
2.42492e-08
2.42559e-08
2.42607e-08
2.427e-08
2.42751e-08
2.42974e-08
2.43255e-08
2.43395e-08
2.43935e-08
2.44135e-08
2.44919e-08
2.45385e-08
2.45575e-08
2.45847e-08
2.45895e-08
2.45697e-08
2.45735e-08
2.45608e-08
2.46267e-08
2.4587e-08
2.45715e-08
2.48273e-08
2.46958e-08
2.47312e-08
2.46928e-08
2.48204e-08
2.47394e-08
2.49054e-08
2.50477e-08
2.55119e-08
2.5202e-08
2.47661e-08
2.63518e-08
2.42402e-08
2.42401e-08
2.42401e-08
2.42402e-08
2.42402e-08
2.42403e-08
2.42404e-08
2.42405e-08
2.42407e-08
2.42411e-08
2.42414e-08
2.42423e-08
2.42435e-08
2.42456e-08
2.42476e-08
2.42504e-08
2.42581e-08
2.42626e-08
2.42734e-08
2.42813e-08
2.42993e-08
2.43218e-08
2.43485e-08
2.4395e-08
2.44133e-08
2.45002e-08
2.45429e-08
2.45791e-08
2.45955e-08
2.45892e-08
2.4616e-08
2.45798e-08
2.45593e-08
2.46162e-08
2.45727e-08
2.46052e-08
2.47989e-08
2.47101e-08
2.47507e-08
2.46743e-08
2.48147e-08
2.47711e-08
2.48595e-08
2.4969e-08
2.55563e-08
2.58017e-08
2.53625e-08
2.60565e-08
2.42401e-08
2.42401e-08
2.42402e-08
2.42402e-08
2.42402e-08
2.42403e-08
2.42404e-08
2.42405e-08
2.42408e-08
2.42412e-08
2.42416e-08
2.42427e-08
2.42437e-08
2.42463e-08
2.42489e-08
2.42508e-08
2.42595e-08
2.42658e-08
2.42769e-08
2.42851e-08
2.42994e-08
2.43218e-08
2.43445e-08
2.44193e-08
2.4424e-08
2.45064e-08
2.45609e-08
2.45949e-08
2.4606e-08
2.46037e-08
2.46098e-08
2.4611e-08
2.45841e-08
2.46111e-08
2.45807e-08
2.46596e-08
2.46959e-08
2.471e-08
2.47258e-08
2.46754e-08
2.4783e-08
2.4774e-08
2.48365e-08
2.5119e-08
2.58299e-08
2.65019e-08
2.60232e-08
2.6154e-08
2.42402e-08
2.42401e-08
2.42402e-08
2.42402e-08
2.42402e-08
2.42403e-08
2.42404e-08
2.42405e-08
2.42408e-08
2.42412e-08
2.42416e-08
2.42427e-08
2.42435e-08
2.42462e-08
2.42485e-08
2.42518e-08
2.42616e-08
2.42689e-08
2.42764e-08
2.42922e-08
2.43029e-08
2.43346e-08
2.43605e-08
2.44161e-08
2.44456e-08
2.45027e-08
2.4568e-08
2.46038e-08
2.46204e-08
2.45839e-08
2.46535e-08
2.46116e-08
2.46018e-08
2.46267e-08
2.45982e-08
2.46234e-08
2.47112e-08
2.47159e-08
2.47118e-08
2.47406e-08
2.47788e-08
2.48274e-08
2.48609e-08
2.52453e-08
2.59494e-08
2.63965e-08
2.7345e-08
2.68574e-08
2.42402e-08
2.42402e-08
2.42402e-08
2.42402e-08
2.42402e-08
2.42403e-08
2.42404e-08
2.42405e-08
2.42408e-08
2.42413e-08
2.42418e-08
2.42427e-08
2.42435e-08
2.42465e-08
2.42495e-08
2.42532e-08
2.42623e-08
2.42704e-08
2.4276e-08
2.43003e-08
2.43087e-08
2.43485e-08
2.43733e-08
2.44222e-08
2.44628e-08
2.45318e-08
2.45818e-08
2.46167e-08
2.4612e-08
2.45874e-08
2.46502e-08
2.46379e-08
2.4627e-08
2.4648e-08
2.46183e-08
2.46671e-08
2.46921e-08
2.47008e-08
2.47524e-08
2.47825e-08
2.48743e-08
2.48965e-08
2.49333e-08
2.53519e-08
2.55969e-08
2.73257e-08
2.88859e-08
2.72939e-08
2.42402e-08
2.42402e-08
2.42402e-08
2.42402e-08
2.42402e-08
2.42403e-08
2.42404e-08
2.42406e-08
2.42409e-08
2.42413e-08
2.4242e-08
2.42428e-08
2.4244e-08
2.42465e-08
2.425e-08
2.42554e-08
2.42634e-08
2.42739e-08
2.42784e-08
2.43025e-08
2.43175e-08
2.43522e-08
2.43786e-08
2.44318e-08
2.44859e-08
2.45598e-08
2.45777e-08
2.45974e-08
2.46243e-08
2.45937e-08
2.46611e-08
2.46178e-08
2.46678e-08
2.46469e-08
2.46401e-08
2.46577e-08
2.46641e-08
2.46961e-08
2.47739e-08
2.47778e-08
2.49019e-08
2.50118e-08
2.50528e-08
2.59811e-08
2.54602e-08
2.62303e-08
2.77061e-08
2.8119e-08
2.42402e-08
2.42402e-08
2.42402e-08
2.42402e-08
2.42403e-08
2.42403e-08
2.42404e-08
2.42406e-08
2.42409e-08
2.42415e-08
2.4242e-08
2.4243e-08
2.42447e-08
2.42471e-08
2.42507e-08
2.42577e-08
2.42644e-08
2.42736e-08
2.42832e-08
2.43043e-08
2.43234e-08
2.43557e-08
2.43769e-08
2.44302e-08
2.44839e-08
2.45531e-08
2.45788e-08
2.46146e-08
2.46533e-08
2.46203e-08
2.46574e-08
2.46397e-08
2.46576e-08
2.46458e-08
2.46357e-08
2.46573e-08
2.46575e-08
2.46916e-08
2.47583e-08
2.48248e-08
2.49535e-08
2.50962e-08
2.5246e-08
2.6532e-08
2.59315e-08
2.66917e-08
2.84286e-08
2.82531e-08
2.42402e-08
2.42402e-08
2.42402e-08
2.42402e-08
2.42403e-08
2.42403e-08
2.42405e-08
2.42407e-08
2.42409e-08
2.42415e-08
2.42422e-08
2.42433e-08
2.42451e-08
2.42473e-08
2.4252e-08
2.42581e-08
2.42654e-08
2.42769e-08
2.42882e-08
2.43058e-08
2.43235e-08
2.43553e-08
2.43854e-08
2.44402e-08
2.44854e-08
2.45387e-08
2.45573e-08
2.46177e-08
2.46512e-08
2.4614e-08
2.46575e-08
2.46247e-08
2.46554e-08
2.46235e-08
2.46175e-08
2.4667e-08
2.46725e-08
2.46844e-08
2.47707e-08
2.48585e-08
2.49973e-08
2.55879e-08
2.56705e-08
2.75628e-08
2.70759e-08
2.62376e-08
2.86498e-08
2.80166e-08
2.42402e-08
2.42402e-08
2.42402e-08
2.42402e-08
2.42403e-08
2.42404e-08
2.42404e-08
2.42407e-08
2.42409e-08
2.42415e-08
2.42422e-08
2.42437e-08
2.42449e-08
2.4248e-08
2.42516e-08
2.4259e-08
2.42654e-08
2.42775e-08
2.42943e-08
2.43097e-08
2.43302e-08
2.43622e-08
2.43783e-08
2.44324e-08
2.44789e-08
2.45472e-08
2.45719e-08
2.45928e-08
2.46564e-08
2.46325e-08
2.46457e-08
2.46472e-08
2.46454e-08
2.46365e-08
2.46239e-08
2.46409e-08
2.46538e-08
2.46734e-08
2.47671e-08
2.49481e-08
2.50297e-08
2.6042e-08
2.63038e-08
2.80873e-08
2.94321e-08
2.72358e-08
2.77958e-08
3.04217e-08
2.42402e-08
2.42402e-08
2.42402e-08
2.42402e-08
2.42403e-08
2.42404e-08
2.42404e-08
2.42407e-08
2.4241e-08
2.42416e-08
2.42423e-08
2.42436e-08
2.42451e-08
2.42485e-08
2.42523e-08
2.42599e-08
2.42681e-08
2.42768e-08
2.42966e-08
2.43146e-08
2.43264e-08
2.43625e-08
2.43888e-08
2.44367e-08
2.44738e-08
2.45358e-08
2.45638e-08
2.46051e-08
2.4628e-08
2.46181e-08
2.46413e-08
2.46177e-08
2.46281e-08
2.46127e-08
2.46321e-08
2.46401e-08
2.46589e-08
2.4668e-08
2.47728e-08
2.50011e-08
2.51349e-08
2.60444e-08
2.61145e-08
2.77832e-08
3.1117e-08
2.69775e-08
2.73467e-08
3.20044e-08
2.42402e-08
2.42402e-08
2.42402e-08
2.42402e-08
2.42403e-08
2.42404e-08
2.42405e-08
2.42407e-08
2.4241e-08
2.42417e-08
2.42422e-08
2.42439e-08
2.42454e-08
2.42492e-08
2.42531e-08
2.42602e-08
2.42684e-08
2.42784e-08
2.42979e-08
2.43152e-08
2.43277e-08
2.43695e-08
2.43877e-08
2.44289e-08
2.44904e-08
2.45273e-08
2.45685e-08
2.45946e-08
2.46274e-08
2.46008e-08
2.46101e-08
2.46103e-08
2.46405e-08
2.46209e-08
2.4604e-08
2.46244e-08
2.46512e-08
2.46592e-08
2.47609e-08
2.50104e-08
2.52687e-08
2.55271e-08
2.59093e-08
2.86785e-08
3.01806e-08
2.69618e-08
2.86799e-08
3.44118e-08
2.42402e-08
2.42402e-08
2.42402e-08
2.42403e-08
2.42403e-08
2.42404e-08
2.42405e-08
2.42408e-08
2.42411e-08
2.42418e-08
2.42422e-08
2.42439e-08
2.4246e-08
2.42492e-08
2.42528e-08
2.4261e-08
2.42695e-08
2.42792e-08
2.43e-08
2.43175e-08
2.43305e-08
2.43688e-08
2.43961e-08
2.44268e-08
2.44824e-08
2.45213e-08
2.4552e-08
2.45952e-08
2.46149e-08
2.46095e-08
2.46013e-08
2.46019e-08
2.46055e-08
2.45926e-08
2.45965e-08
2.45935e-08
2.46305e-08
2.46618e-08
2.47624e-08
2.51496e-08
2.54848e-08
2.57778e-08
2.66801e-08
2.87841e-08
2.89652e-08
2.71417e-08
2.90728e-08
3.35064e-08
2.42402e-08
2.42402e-08
2.42402e-08
2.42403e-08
2.42403e-08
2.42404e-08
2.42406e-08
2.42408e-08
2.42411e-08
2.42418e-08
2.42424e-08
2.42441e-08
2.42461e-08
2.4249e-08
2.42526e-08
2.42609e-08
2.42685e-08
2.42816e-08
2.4299e-08
2.43159e-08
2.43359e-08
2.43692e-08
2.43874e-08
2.44137e-08
2.44662e-08
2.44968e-08
2.45454e-08
2.45722e-08
2.46096e-08
2.45818e-08
2.45888e-08
2.45916e-08
2.45916e-08
2.45744e-08
2.4578e-08
2.45785e-08
2.46146e-08
2.46507e-08
2.47667e-08
2.53173e-08
2.58036e-08
2.60946e-08
2.74356e-08
2.82432e-08
2.88337e-08
2.76228e-08
2.93268e-08
3.34941e-08
2.42402e-08
2.42402e-08
2.42402e-08
2.42403e-08
2.42403e-08
2.42404e-08
2.42406e-08
2.42409e-08
2.42413e-08
2.42418e-08
2.42425e-08
2.42443e-08
2.4246e-08
2.42492e-08
2.42531e-08
2.42613e-08
2.42708e-08
2.42815e-08
2.43001e-08
2.43159e-08
2.43353e-08
2.43665e-08
2.4394e-08
2.44129e-08
2.44653e-08
2.44904e-08
2.45179e-08
2.45488e-08
2.45725e-08
2.45639e-08
2.45701e-08
2.45591e-08
2.45674e-08
2.45551e-08
2.4562e-08
2.45601e-08
2.45845e-08
2.4617e-08
2.4773e-08
2.5097e-08
2.61081e-08
2.64042e-08
2.74903e-08
2.888e-08
2.92846e-08
2.86218e-08
2.90832e-08
3.35053e-08
2.42402e-08
2.42402e-08
2.42402e-08
2.42403e-08
2.42403e-08
2.42404e-08
2.42406e-08
2.42409e-08
2.42413e-08
2.42418e-08
2.42427e-08
2.42443e-08
2.42466e-08
2.42498e-08
2.42542e-08
2.42601e-08
2.42704e-08
2.42822e-08
2.43021e-08
2.4316e-08
2.43391e-08
2.43597e-08
2.4385e-08
2.44169e-08
2.44567e-08
2.44807e-08
2.45098e-08
2.45399e-08
2.45521e-08
2.45363e-08
2.45413e-08
2.45505e-08
2.45477e-08
2.45219e-08
2.45406e-08
2.45459e-08
2.45685e-08
2.45932e-08
2.48305e-08
2.50386e-08
2.56454e-08
2.59983e-08
2.7602e-08
2.9349e-08
3.05473e-08
2.91748e-08
2.90458e-08
3.46128e-08
2.42403e-08
2.42403e-08
2.42403e-08
2.42403e-08
2.42404e-08
2.42404e-08
2.42406e-08
2.42409e-08
2.42413e-08
2.4242e-08
2.42429e-08
2.42447e-08
2.42467e-08
2.42504e-08
2.42549e-08
2.42603e-08
2.42722e-08
2.42846e-08
2.42986e-08
2.43159e-08
2.43369e-08
2.4363e-08
2.43803e-08
2.44094e-08
2.44423e-08
2.44707e-08
2.44935e-08
2.45201e-08
2.45318e-08
2.45211e-08
2.45225e-08
2.45288e-08
2.45229e-08
2.44974e-08
2.45212e-08
2.45263e-08
2.45404e-08
2.458e-08
2.48281e-08
2.49874e-08
2.59914e-08
2.6126e-08
2.74605e-08
2.84568e-08
2.99424e-08
2.88953e-08
2.91288e-08
3.41079e-08
2.42403e-08
2.42403e-08
2.42403e-08
2.42403e-08
2.42403e-08
2.42404e-08
2.42407e-08
2.4241e-08
2.42414e-08
2.4242e-08
2.4243e-08
2.42446e-08
2.42465e-08
2.42502e-08
2.42546e-08
2.42602e-08
2.42703e-08
2.42833e-08
2.42987e-08
2.4316e-08
2.43354e-08
2.4358e-08
2.43768e-08
2.44022e-08
2.44304e-08
2.44654e-08
2.44742e-08
2.4487e-08
2.45124e-08
2.45045e-08
2.45071e-08
2.44919e-08
2.4494e-08
2.44523e-08
2.44986e-08
2.45101e-08
2.45253e-08
2.45659e-08
2.4769e-08
2.49205e-08
2.56051e-08
2.6015e-08
2.81472e-08
2.89047e-08
3.05706e-08
2.86586e-08
2.92944e-08
3.42462e-08
2.42403e-08
2.42403e-08
2.42403e-08
2.42403e-08
2.42404e-08
2.42405e-08
2.42407e-08
2.4241e-08
2.42414e-08
2.4242e-08
2.42431e-08
2.42448e-08
2.42467e-08
2.42502e-08
2.42544e-08
2.42609e-08
2.42702e-08
2.42829e-08
2.42972e-08
2.43154e-08
2.43292e-08
2.43503e-08
2.43696e-08
2.4396e-08
2.44093e-08
2.44534e-08
2.445e-08
2.4472e-08
2.44847e-08
2.44861e-08
2.44843e-08
2.44744e-08
2.44692e-08
2.4436e-08
2.44697e-08
2.44837e-08
2.44961e-08
2.45515e-08
2.4822e-08
2.49165e-08
2.57825e-08
2.62581e-08
2.81323e-08
2.87958e-08
2.97843e-08
2.86098e-08
2.92977e-08
3.4609e-08
2.42403e-08
2.42403e-08
2.42403e-08
2.42403e-08
2.42404e-08
2.42405e-08
2.42407e-08
2.4241e-08
2.42415e-08
2.42421e-08
2.42432e-08
2.42445e-08
2.42471e-08
2.42505e-08
2.42543e-08
2.42601e-08
2.42694e-08
2.42801e-08
2.42946e-08
2.43161e-08
2.43304e-08
2.43473e-08
2.43552e-08
2.43746e-08
2.44002e-08
2.44251e-08
2.44315e-08
2.44491e-08
2.44622e-08
2.44695e-08
2.44662e-08
2.44446e-08
2.44365e-08
2.44145e-08
2.44422e-08
2.44573e-08
2.44735e-08
2.4533e-08
2.4781e-08
2.48916e-08
2.54169e-08
2.66904e-08
2.87575e-08
2.92968e-08
3.0158e-08
2.8607e-08
2.84402e-08
3.55702e-08
2.42403e-08
2.42403e-08
2.42403e-08
2.42403e-08
2.42404e-08
2.42405e-08
2.42407e-08
2.4241e-08
2.42414e-08
2.42421e-08
2.42432e-08
2.42446e-08
2.42466e-08
2.42502e-08
2.42535e-08
2.42609e-08
2.42685e-08
2.42793e-08
2.42931e-08
2.43138e-08
2.43273e-08
2.43443e-08
2.4349e-08
2.43675e-08
2.43875e-08
2.44129e-08
2.441e-08
2.44248e-08
2.44392e-08
2.44381e-08
2.44324e-08
2.4414e-08
2.44152e-08
2.43925e-08
2.44092e-08
2.44306e-08
2.44484e-08
2.45158e-08
2.47648e-08
2.49578e-08
2.51987e-08
2.64708e-08
2.81657e-08
2.96332e-08
2.97176e-08
2.91343e-08
2.87214e-08
3.39736e-08
2.42403e-08
2.42403e-08
2.42403e-08
2.42403e-08
2.42404e-08
2.42405e-08
2.42407e-08
2.4241e-08
2.42414e-08
2.4242e-08
2.42432e-08
2.42446e-08
2.42465e-08
2.42501e-08
2.42538e-08
2.42594e-08
2.42679e-08
2.4278e-08
2.42905e-08
2.43126e-08
2.43198e-08
2.43362e-08
2.43395e-08
2.43578e-08
2.43757e-08
2.43907e-08
2.43863e-08
2.44098e-08
2.44061e-08
2.43986e-08
2.43948e-08
2.43955e-08
2.43853e-08
2.43694e-08
2.43868e-08
2.44028e-08
2.44247e-08
2.44922e-08
2.47316e-08
2.49693e-08
2.5514e-08
2.71292e-08
2.83729e-08
2.84003e-08
2.92623e-08
2.95845e-08
2.85849e-08
3.396e-08
2.42403e-08
2.42403e-08
2.42403e-08
2.42403e-08
2.42404e-08
2.42405e-08
2.42408e-08
2.42411e-08
2.42415e-08
2.42422e-08
2.42432e-08
2.42447e-08
2.42463e-08
2.42495e-08
2.42535e-08
2.42589e-08
2.42672e-08
2.42769e-08
2.42895e-08
2.43065e-08
2.43174e-08
2.43338e-08
2.43329e-08
2.43477e-08
2.43653e-08
2.43674e-08
2.43685e-08
2.4386e-08
2.4385e-08
2.43808e-08
2.43773e-08
2.4366e-08
2.43585e-08
2.43481e-08
2.43664e-08
2.43871e-08
2.43962e-08
2.44581e-08
2.46153e-08
2.50208e-08
2.57187e-08
2.77562e-08
2.85621e-08
2.83485e-08
2.91676e-08
2.95958e-08
2.89936e-08
3.41348e-08
2.42404e-08
2.42403e-08
2.42404e-08
2.42403e-08
2.42404e-08
2.42406e-08
2.42408e-08
2.42411e-08
2.42415e-08
2.42422e-08
2.42431e-08
2.42446e-08
2.42463e-08
2.42494e-08
2.42533e-08
2.42578e-08
2.42652e-08
2.42758e-08
2.42888e-08
2.43042e-08
2.4314e-08
2.4327e-08
2.43261e-08
2.43418e-08
2.43489e-08
2.43532e-08
2.43469e-08
2.4365e-08
2.43559e-08
2.43541e-08
2.43518e-08
2.43398e-08
2.43344e-08
2.43318e-08
2.43421e-08
2.43621e-08
2.43727e-08
2.44272e-08
2.45853e-08
2.50794e-08
2.57644e-08
2.82129e-08
2.83087e-08
2.83232e-08
2.7981e-08
3.00176e-08
2.90143e-08
3.47801e-08
2.42404e-08
2.42403e-08
2.42404e-08
2.42403e-08
2.42404e-08
2.42406e-08
2.42407e-08
2.42411e-08
2.42415e-08
2.42422e-08
2.42431e-08
2.42444e-08
2.42462e-08
2.42493e-08
2.42522e-08
2.42573e-08
2.42646e-08
2.42749e-08
2.42878e-08
2.42994e-08
2.43071e-08
2.43155e-08
2.43164e-08
2.43323e-08
2.433e-08
2.43301e-08
2.43322e-08
2.43329e-08
2.4331e-08
2.43325e-08
2.43327e-08
2.43243e-08
2.43167e-08
2.43234e-08
2.4327e-08
2.4344e-08
2.43435e-08
2.44122e-08
2.45398e-08
2.47456e-08
2.55264e-08
2.77177e-08
2.85044e-08
2.84788e-08
2.87978e-08
3.34244e-08
3.04094e-08
3.51752e-08
2.42404e-08
2.42403e-08
2.42404e-08
2.42403e-08
2.42405e-08
2.42406e-08
2.42408e-08
2.42411e-08
2.42415e-08
2.42422e-08
2.4243e-08
2.42444e-08
2.42465e-08
2.42492e-08
2.42516e-08
2.42568e-08
2.42638e-08
2.42738e-08
2.42835e-08
2.42963e-08
2.43035e-08
2.43102e-08
2.4309e-08
2.4324e-08
2.43189e-08
2.43147e-08
2.43109e-08
2.43089e-08
2.43207e-08
2.43199e-08
2.43226e-08
2.43198e-08
2.43169e-08
2.43236e-08
2.43264e-08
2.43382e-08
2.43338e-08
2.43909e-08
2.45319e-08
2.48064e-08
2.52613e-08
2.76449e-08
2.90882e-08
2.80783e-08
2.94327e-08
3.37488e-08
3.02711e-08
3.41284e-08
2.42403e-08
2.42404e-08
2.42404e-08
2.42404e-08
2.42405e-08
2.42406e-08
2.42409e-08
2.42411e-08
2.42415e-08
2.42422e-08
2.4243e-08
2.42442e-08
2.42463e-08
2.42487e-08
2.42507e-08
2.42561e-08
2.42628e-08
2.42721e-08
2.42799e-08
2.42903e-08
2.42989e-08
2.43031e-08
2.43012e-08
2.4312e-08
2.43009e-08
2.42964e-08
2.42992e-08
2.42995e-08
2.43167e-08
2.43188e-08
2.43293e-08
2.43213e-08
2.43236e-08
2.43252e-08
2.43296e-08
2.4342e-08
2.43296e-08
2.43776e-08
2.448e-08
2.46942e-08
2.52743e-08
2.70073e-08
2.85258e-08
2.89955e-08
2.8964e-08
3.19409e-08
3.08935e-08
3.56069e-08
2.42404e-08
2.42404e-08
2.42404e-08
2.42404e-08
2.42405e-08
2.42406e-08
2.42408e-08
2.42412e-08
2.42415e-08
2.42421e-08
2.4243e-08
2.42442e-08
2.4246e-08
2.42482e-08
2.42502e-08
2.42555e-08
2.42613e-08
2.42705e-08
2.42781e-08
2.42876e-08
2.42955e-08
2.42979e-08
2.42968e-08
2.43009e-08
2.42898e-08
2.42814e-08
2.42853e-08
2.42927e-08
2.43185e-08
2.43228e-08
2.43468e-08
2.43221e-08
2.43311e-08
2.43422e-08
2.43472e-08
2.43489e-08
2.43332e-08
2.4375e-08
2.44563e-08
2.46529e-08
2.50795e-08
2.73162e-08
2.84833e-08
2.95161e-08
2.87854e-08
3.18234e-08
3.21155e-08
3.50695e-08
2.42404e-08
2.42404e-08
2.42404e-08
2.42404e-08
2.42405e-08
2.42406e-08
2.42409e-08
2.42411e-08
2.42415e-08
2.42422e-08
2.42428e-08
2.42441e-08
2.42461e-08
2.42477e-08
2.42495e-08
2.42546e-08
2.42602e-08
2.42671e-08
2.4276e-08
2.42837e-08
2.42908e-08
2.42917e-08
2.42906e-08
2.42867e-08
2.42751e-08
2.42734e-08
2.4285e-08
2.42963e-08
2.4322e-08
2.43281e-08
2.43605e-08
2.43406e-08
2.43617e-08
2.43683e-08
2.43478e-08
2.43733e-08
2.43362e-08
2.43783e-08
2.44312e-08
2.46317e-08
2.50771e-08
2.80232e-08
2.85713e-08
2.99649e-08
2.85312e-08
3.12683e-08
3.17961e-08
3.42386e-08
2.42404e-08
2.42404e-08
2.42404e-08
2.42404e-08
2.42405e-08
2.42407e-08
2.42409e-08
2.42411e-08
2.42415e-08
2.42422e-08
2.42429e-08
2.42441e-08
2.42459e-08
2.42475e-08
2.42489e-08
2.42531e-08
2.42583e-08
2.42652e-08
2.42739e-08
2.42801e-08
2.4285e-08
2.42871e-08
2.42847e-08
2.42801e-08
2.42698e-08
2.42724e-08
2.42878e-08
2.43001e-08
2.43369e-08
2.43387e-08
2.43758e-08
2.43689e-08
2.4376e-08
2.44195e-08
2.43892e-08
2.439e-08
2.43563e-08
2.43887e-08
2.44034e-08
2.45481e-08
2.49829e-08
2.79126e-08
2.98148e-08
2.93284e-08
2.84731e-08
3.1122e-08
3.11358e-08
3.59183e-08
2.42404e-08
2.42404e-08
2.42404e-08
2.42404e-08
2.42406e-08
2.42407e-08
2.42409e-08
2.42412e-08
2.42416e-08
2.42421e-08
2.4243e-08
2.42438e-08
2.42459e-08
2.42475e-08
2.42483e-08
2.42524e-08
2.4257e-08
2.42635e-08
2.42703e-08
2.42743e-08
2.42784e-08
2.42807e-08
2.42777e-08
2.42696e-08
2.42655e-08
2.42742e-08
2.42897e-08
2.43059e-08
2.43599e-08
2.43711e-08
2.43795e-08
2.43973e-08
2.44479e-08
2.44743e-08
2.44366e-08
2.44401e-08
2.43955e-08
2.43987e-08
2.44009e-08
2.45493e-08
2.50627e-08
2.84327e-08
2.91764e-08
2.8596e-08
2.91433e-08
3.08976e-08
3.11122e-08
3.86079e-08
2.42405e-08
2.42404e-08
2.42405e-08
2.42404e-08
2.42406e-08
2.42407e-08
2.42409e-08
2.42413e-08
2.42416e-08
2.42422e-08
2.42431e-08
2.42438e-08
2.42457e-08
2.42473e-08
2.42478e-08
2.42514e-08
2.42552e-08
2.4261e-08
2.42653e-08
2.42689e-08
2.42747e-08
2.4274e-08
2.42709e-08
2.42637e-08
2.42667e-08
2.42758e-08
2.43042e-08
2.433e-08
2.43918e-08
2.44109e-08
2.44458e-08
2.44527e-08
2.45168e-08
2.45533e-08
2.44997e-08
2.45119e-08
2.44519e-08
2.44354e-08
2.44073e-08
2.45545e-08
2.4891e-08
2.69804e-08
3.05896e-08
2.92867e-08
2.93938e-08
3.22509e-08
3.18957e-08
3.93841e-08
2.42404e-08
2.42404e-08
2.42405e-08
2.42405e-08
2.42405e-08
2.42408e-08
2.4241e-08
2.42413e-08
2.42417e-08
2.42423e-08
2.4243e-08
2.42439e-08
2.42458e-08
2.42471e-08
2.42475e-08
2.42509e-08
2.4254e-08
2.42584e-08
2.42628e-08
2.42657e-08
2.42685e-08
2.42678e-08
2.42646e-08
2.42602e-08
2.42687e-08
2.42803e-08
2.43147e-08
2.43572e-08
2.44465e-08
2.44602e-08
2.45015e-08
2.45227e-08
2.46004e-08
2.46336e-08
2.45868e-08
2.45905e-08
2.45245e-08
2.44983e-08
2.44169e-08
2.46413e-08
2.49116e-08
2.6678e-08
3.22262e-08
3.09484e-08
3.01954e-08
3.13086e-08
3.12422e-08
3.96867e-08
2.42405e-08
2.42404e-08
2.42405e-08
2.42405e-08
2.42406e-08
2.42408e-08
2.42409e-08
2.42413e-08
2.42418e-08
2.42422e-08
2.42431e-08
2.42441e-08
2.42455e-08
2.4247e-08
2.42473e-08
2.42501e-08
2.42522e-08
2.42567e-08
2.42595e-08
2.42603e-08
2.42626e-08
2.42623e-08
2.42584e-08
2.4259e-08
2.42701e-08
2.42924e-08
2.4327e-08
2.43929e-08
2.45018e-08
2.45069e-08
2.45738e-08
2.45957e-08
2.46821e-08
2.47058e-08
2.46684e-08
2.46895e-08
2.46105e-08
2.45514e-08
2.44324e-08
2.47294e-08
2.49458e-08
2.61642e-08
2.89043e-08
3.22126e-08
3.06601e-08
3.14251e-08
3.1543e-08
4.04361e-08
2.42405e-08
2.42404e-08
2.42405e-08
2.42405e-08
2.42406e-08
2.42408e-08
2.4241e-08
2.42413e-08
2.42418e-08
2.42422e-08
2.4243e-08
2.4244e-08
2.42455e-08
2.42468e-08
2.42474e-08
2.42496e-08