/*--------------------------------*- C++ -*----------------------------------*\
  =========                 |
  \\      /  F ield         | OpenFOAM: The Open Source CFD Toolbox
   \\    /   O peration     | Website:  https://openfoam.org
    \\  /    A nd           | Version:  10
     \\/     M anipulation  |
\*---------------------------------------------------------------------------*/
FoamFile
{
    format      ascii;
    class       volScalarField;
    location    "10";
    object      nuTilda;
}
// * * * * * * * * * * * * * * * * * * * * * * * * * * * * * * * * * * * * * //

dimensions      [0 2 -1 0 0 0 0];

internalField   nonuniform List<scalar> 
38016
(
8.70002e-06
8.70002e-06
8.70002e-06
8.70002e-06
8.70002e-06
8.70001e-06
8.70001e-06
8.70002e-06
8.70002e-06
8.70002e-06
8.70019e-06
8.70026e-06
8.70039e-06
8.70065e-06
8.70126e-06
8.70125e-06
8.70114e-06
8.70192e-06
8.70179e-06
8.70265e-06
8.70329e-06
8.70409e-06
8.70644e-06
8.70591e-06
8.70867e-06
8.70985e-06
8.71174e-06
8.71142e-06
8.71218e-06
8.71363e-06
8.70966e-06
8.71412e-06
8.71284e-06
8.71565e-06
8.71757e-06
8.72215e-06
8.72414e-06
8.73571e-06
8.7569e-06
8.76461e-06
8.7747e-06
8.76241e-06
8.76647e-06
8.78417e-06
8.88314e-06
8.90757e-06
8.85503e-06
8.84175e-06
8.70002e-06
8.70002e-06
8.70002e-06
8.70002e-06
8.70002e-06
8.70001e-06
8.70001e-06
8.70002e-06
8.70002e-06
8.70002e-06
8.70019e-06
8.70026e-06
8.70037e-06
8.70061e-06
8.70094e-06
8.70118e-06
8.70111e-06
8.70199e-06
8.70178e-06
8.70272e-06
8.70358e-06
8.70455e-06
8.70656e-06
8.70552e-06
8.70836e-06
8.71105e-06
8.71258e-06
8.71268e-06
8.71193e-06
8.71547e-06
8.70933e-06
8.71382e-06
8.71398e-06
8.71949e-06
8.72116e-06
8.72586e-06
8.72536e-06
8.73721e-06
8.74835e-06
8.76339e-06
8.77521e-06
8.75822e-06
8.77107e-06
8.784e-06
8.88989e-06
8.90809e-06
8.84904e-06
8.84161e-06
8.70002e-06
8.70002e-06
8.70002e-06
8.70002e-06
8.70002e-06
8.70001e-06
8.70001e-06
8.70002e-06
8.70003e-06
8.70003e-06
8.70017e-06
8.70023e-06
8.70036e-06
8.7006e-06
8.70094e-06
8.70129e-06
8.70109e-06
8.70199e-06
8.70184e-06
8.70273e-06
8.70316e-06
8.70477e-06
8.70552e-06
8.70554e-06
8.70815e-06
8.71071e-06
8.71255e-06
8.71249e-06
8.71371e-06
8.71561e-06
8.70926e-06
8.71285e-06
8.71531e-06
8.72024e-06
8.72329e-06
8.72841e-06
8.71983e-06
8.73882e-06
8.75268e-06
8.76988e-06
8.7708e-06
8.75118e-06
8.77127e-06
8.78502e-06
8.87707e-06
8.87012e-06
8.82867e-06
8.83771e-06
8.70002e-06
8.70002e-06
8.70002e-06
8.70002e-06
8.70002e-06
8.70001e-06
8.70001e-06
8.70002e-06
8.70003e-06
8.70003e-06
8.70018e-06
8.70027e-06
8.70041e-06
8.7006e-06
8.70094e-06
8.70115e-06
8.7012e-06
8.70195e-06
8.7021e-06
8.70273e-06
8.70374e-06
8.70486e-06
8.70573e-06
8.70541e-06
8.70769e-06
8.71153e-06
8.71274e-06
8.71155e-06
8.71259e-06
8.7158e-06
8.70931e-06
8.71218e-06
8.71735e-06
8.72072e-06
8.72597e-06
8.72841e-06
8.72483e-06
8.72709e-06
8.74908e-06
8.75805e-06
8.75896e-06
8.75256e-06
8.7829e-06
8.785e-06
8.85721e-06
8.84441e-06
8.79259e-06
8.81073e-06
8.70002e-06
8.70002e-06
8.70001e-06
8.70002e-06
8.70001e-06
8.70001e-06
8.70002e-06
8.70002e-06
8.70003e-06
8.70004e-06
8.7002e-06
8.70026e-06
8.70045e-06
8.7007e-06
8.70095e-06
8.7012e-06
8.70135e-06
8.70195e-06
8.70194e-06
8.70302e-06
8.70424e-06
8.70486e-06
8.70569e-06
8.70608e-06
8.70849e-06
8.71186e-06
8.71481e-06
8.71252e-06
8.71422e-06
8.71616e-06
8.70998e-06
8.7126e-06
8.722e-06
8.72121e-06
8.72363e-06
8.72781e-06
8.72915e-06
8.7229e-06
8.74975e-06
8.7585e-06
8.77287e-06
8.75577e-06
8.78024e-06
8.80611e-06
8.85001e-06
8.80866e-06
8.76673e-06
8.79088e-06
8.70002e-06
8.70002e-06
8.70002e-06
8.70002e-06
8.70002e-06
8.70001e-06
8.70002e-06
8.70002e-06
8.70003e-06
8.70004e-06
8.70021e-06
8.70029e-06
8.70047e-06
8.70077e-06
8.70092e-06
8.70116e-06
8.70147e-06
8.70206e-06
8.70225e-06
8.70329e-06
8.70447e-06
8.70475e-06
8.70675e-06
8.70641e-06
8.70861e-06
8.71231e-06
8.71561e-06
8.71238e-06
8.71484e-06
8.71744e-06
8.71296e-06
8.71456e-06
8.72377e-06
8.72152e-06
8.72556e-06
8.72732e-06
8.73124e-06
8.72203e-06
8.74747e-06
8.75857e-06
8.775e-06
8.75565e-06
8.79782e-06
8.81843e-06
8.85344e-06
8.80778e-06
8.76342e-06
8.77902e-06
8.70002e-06
8.70002e-06
8.70002e-06
8.70002e-06
8.70002e-06
8.70001e-06
8.70002e-06
8.70002e-06
8.70003e-06
8.70005e-06
8.70021e-06
8.70031e-06
8.70052e-06
8.7007e-06
8.70092e-06
8.70113e-06
8.70156e-06
8.70209e-06
8.70249e-06
8.70315e-06
8.70498e-06
8.70587e-06
8.70799e-06
8.70739e-06
8.71003e-06
8.71372e-06
8.71609e-06
8.71367e-06
8.71723e-06
8.72011e-06
8.71774e-06
8.71623e-06
8.723e-06
8.72251e-06
8.72652e-06
8.72838e-06
8.72961e-06
8.72304e-06
8.74382e-06
8.7586e-06
8.78278e-06
8.75807e-06
8.803e-06
8.82161e-06
8.83446e-06
8.8132e-06
8.75361e-06
8.7729e-06
8.70002e-06
8.70002e-06
8.70002e-06
8.70002e-06
8.70002e-06
8.70001e-06
8.70002e-06
8.70003e-06
8.70003e-06
8.70005e-06
8.70021e-06
8.70033e-06
8.70056e-06
8.7006e-06
8.70084e-06
8.7011e-06
8.70157e-06
8.70226e-06
8.70244e-06
8.70352e-06
8.70502e-06
8.70642e-06
8.70872e-06
8.70921e-06
8.71157e-06
8.7156e-06
8.7205e-06
8.7166e-06
8.72077e-06
8.72233e-06
8.72005e-06
8.71933e-06
8.72315e-06
8.72446e-06
8.7279e-06
8.72738e-06
8.73123e-06
8.72469e-06
8.7428e-06
8.75402e-06
8.78336e-06
8.7555e-06
8.8073e-06
8.80295e-06
8.84497e-06
8.81979e-06
8.75562e-06
8.77705e-06
8.70001e-06
8.70002e-06
8.70001e-06
8.70002e-06
8.70002e-06
8.70001e-06
8.70002e-06
8.70003e-06
8.70004e-06
8.70005e-06
8.70021e-06
8.7003e-06
8.70049e-06
8.70059e-06
8.70079e-06
8.70106e-06
8.70155e-06
8.70237e-06
8.70263e-06
8.70373e-06
8.7051e-06
8.70655e-06
8.70883e-06
8.7099e-06
8.71282e-06
8.71731e-06
8.72213e-06
8.71635e-06
8.72294e-06
8.72257e-06
8.72387e-06
8.71955e-06
8.72488e-06
8.72602e-06
8.72905e-06
8.72509e-06
8.73112e-06
8.72681e-06
8.74443e-06
8.76265e-06
8.77566e-06
8.75272e-06
8.79019e-06
8.8177e-06
8.83832e-06
8.82447e-06
8.75956e-06
8.78886e-06
8.70001e-06
8.70002e-06
8.70002e-06
8.70002e-06
8.70002e-06
8.70001e-06
8.70002e-06
8.70003e-06
8.70004e-06
8.70006e-06
8.70023e-06
8.7003e-06
8.70047e-06
8.7006e-06
8.70081e-06
8.70091e-06
8.70165e-06
8.70249e-06
8.70276e-06
8.70359e-06
8.70515e-06
8.70656e-06
8.70805e-06
8.71074e-06
8.71294e-06
8.71846e-06
8.72318e-06
8.71752e-06
8.72431e-06
8.72643e-06
8.72765e-06
8.71996e-06
8.72307e-06
8.72595e-06
8.72995e-06
8.72489e-06
8.73275e-06
8.72965e-06
8.74633e-06
8.768e-06
8.78908e-06
8.75214e-06
8.78792e-06
8.83133e-06
8.85184e-06
8.85451e-06
8.77084e-06
8.79079e-06
8.70001e-06
8.70002e-06
8.70002e-06
8.70002e-06
8.70001e-06
8.70002e-06
8.70002e-06
8.70003e-06
8.70004e-06
8.70006e-06
8.70023e-06
8.70029e-06
8.7004e-06
8.70056e-06
8.70066e-06
8.70088e-06
8.70168e-06
8.70261e-06
8.7021e-06
8.70383e-06
8.70473e-06
8.70663e-06
8.7088e-06
8.71109e-06
8.71529e-06
8.7187e-06
8.72149e-06
8.72067e-06
8.72516e-06
8.7282e-06
8.73394e-06
8.72456e-06
8.72682e-06
8.72655e-06
8.72994e-06
8.72592e-06
8.74695e-06
8.73341e-06
8.74652e-06
8.77995e-06
8.77496e-06
8.75536e-06
8.78542e-06
8.8376e-06
8.84308e-06
8.86984e-06
8.77554e-06
8.78024e-06
8.70001e-06
8.70002e-06
8.70002e-06
8.70002e-06
8.70001e-06
8.70002e-06
8.70002e-06
8.70003e-06
8.70005e-06
8.70006e-06
8.70018e-06
8.70026e-06
8.70035e-06
8.70056e-06
8.70067e-06
8.70089e-06
8.70148e-06
8.70232e-06
8.70222e-06
8.70423e-06
8.70469e-06
8.70711e-06
8.70996e-06
8.71104e-06
8.71685e-06
8.72172e-06
8.72472e-06
8.72279e-06
8.72621e-06
8.7299e-06
8.72777e-06
8.72905e-06
8.72769e-06
8.72599e-06
8.72656e-06
8.72626e-06
8.75342e-06
8.73868e-06
8.74718e-06
8.77929e-06
8.76659e-06
8.75786e-06
8.79244e-06
8.80644e-06
8.85453e-06
8.88931e-06
8.77392e-06
8.75588e-06
8.70001e-06
8.70001e-06
8.70002e-06
8.70002e-06
8.70001e-06
8.70002e-06
8.70002e-06
8.70003e-06
8.70005e-06
8.70007e-06
8.70019e-06
8.70025e-06
8.70034e-06
8.70051e-06
8.70067e-06
8.70085e-06
8.70141e-06
8.70232e-06
8.70223e-06
8.70403e-06
8.70458e-06
8.70786e-06
8.71058e-06
8.71333e-06
8.71602e-06
8.72108e-06
8.72509e-06
8.72271e-06
8.72484e-06
8.7297e-06
8.72874e-06
8.73273e-06
8.72737e-06
8.73319e-06
8.73473e-06
8.72829e-06
8.76324e-06
8.74003e-06
8.74935e-06
8.7742e-06
8.76527e-06
8.76023e-06
8.78692e-06
8.78996e-06
8.85717e-06
8.88966e-06
8.78986e-06
8.76987e-06
8.70001e-06
8.70001e-06
8.70001e-06
8.70002e-06
8.70002e-06
8.70002e-06
8.70002e-06
8.70003e-06
8.70005e-06
8.70007e-06
8.70019e-06
8.70026e-06
8.70036e-06
8.70057e-06
8.70071e-06
8.70091e-06
8.70143e-06
8.70212e-06
8.70226e-06
8.7038e-06
8.70411e-06
8.70775e-06
8.70959e-06
8.71326e-06
8.71639e-06
8.7212e-06
8.7247e-06
8.72692e-06
8.7294e-06
8.73048e-06
8.72854e-06
8.7298e-06
8.729e-06
8.73936e-06
8.73755e-06
8.7271e-06
8.76101e-06
8.74063e-06
8.75713e-06
8.77867e-06
8.76523e-06
8.76481e-06
8.78151e-06
8.78234e-06
8.85746e-06
8.89345e-06
8.79531e-06
8.76133e-06
8.70001e-06
8.70001e-06
8.70001e-06
8.70002e-06
8.70002e-06
8.70002e-06
8.70003e-06
8.70003e-06
8.70005e-06
8.70007e-06
8.70019e-06
8.70026e-06
8.70036e-06
8.7005e-06
8.70074e-06
8.70098e-06
8.7015e-06
8.70228e-06
8.70202e-06
8.70343e-06
8.70437e-06
8.70771e-06
8.7105e-06
8.71164e-06
8.71699e-06
8.7201e-06
8.72292e-06
8.73309e-06
8.73023e-06
8.73108e-06
8.7274e-06
8.73113e-06
8.73285e-06
8.74487e-06
8.73647e-06
8.72764e-06
8.76676e-06
8.74131e-06
8.74941e-06
8.76933e-06
8.76213e-06
8.76038e-06
8.77716e-06
8.78098e-06
8.85603e-06
8.83106e-06
8.77354e-06
8.76197e-06
8.70001e-06
8.70001e-06
8.70001e-06
8.70002e-06
8.70002e-06
8.70002e-06
8.70003e-06
8.70004e-06
8.70005e-06
8.70008e-06
8.7002e-06
8.70025e-06
8.70038e-06
8.70051e-06
8.70064e-06
8.70104e-06
8.70152e-06
8.70236e-06
8.70245e-06
8.70318e-06
8.70446e-06
8.70766e-06
8.71051e-06
8.71257e-06
8.71657e-06
8.71819e-06
8.72529e-06
8.73398e-06
8.73617e-06
8.7315e-06
8.72992e-06
8.73207e-06
8.72872e-06
8.73872e-06
8.73481e-06
8.72796e-06
8.77363e-06
8.7449e-06
8.7513e-06
8.75605e-06
8.75973e-06
8.75658e-06
8.7775e-06
8.77561e-06
8.856e-06
8.81465e-06
8.76466e-06
8.77329e-06
8.70002e-06
8.70001e-06
8.70001e-06
8.70002e-06
8.70002e-06
8.70002e-06
8.70003e-06
8.70004e-06
8.70006e-06
8.70009e-06
8.70019e-06
8.70025e-06
8.7004e-06
8.70055e-06
8.70074e-06
8.70099e-06
8.70148e-06
8.70231e-06
8.70243e-06
8.70325e-06
8.70469e-06
8.70807e-06
8.70944e-06
8.71242e-06
8.71721e-06
8.72043e-06
8.72701e-06
8.73219e-06
8.73277e-06
8.73412e-06
8.72992e-06
8.73078e-06
8.72852e-06
8.73926e-06
8.73777e-06
8.72577e-06
8.77387e-06
8.74597e-06
8.74916e-06
8.74847e-06
8.76172e-06
8.75761e-06
8.7663e-06
8.76097e-06
8.82116e-06
8.81352e-06
8.7533e-06
8.81226e-06
8.70002e-06
8.70001e-06
8.70001e-06
8.70002e-06
8.70002e-06
8.70002e-06
8.70003e-06
8.70005e-06
8.70006e-06
8.7001e-06
8.70018e-06
8.70021e-06
8.70036e-06
8.70054e-06
8.70053e-06
8.70104e-06
8.70156e-06
8.70242e-06
8.70267e-06
8.70326e-06
8.70516e-06
8.70791e-06
8.71008e-06
8.71433e-06
8.71675e-06
8.72254e-06
8.72659e-06
8.73178e-06
8.73674e-06
8.73359e-06
8.73448e-06
8.72971e-06
8.73089e-06
8.73877e-06
8.73669e-06
8.7301e-06
8.77124e-06
8.73774e-06
8.74959e-06
8.74434e-06
8.7643e-06
8.75604e-06
8.76751e-06
8.77887e-06
8.8245e-06
8.80701e-06
8.75601e-06
8.89575e-06
8.70001e-06
8.70001e-06
8.70002e-06
8.70002e-06
8.70002e-06
8.70003e-06
8.70003e-06
8.70005e-06
8.70007e-06
8.7001e-06
8.70018e-06
8.70022e-06
8.7003e-06
8.70057e-06
8.70071e-06
8.70085e-06
8.70152e-06
8.70238e-06
8.70293e-06
8.70337e-06
8.70571e-06
8.7088e-06
8.70995e-06
8.71501e-06
8.71673e-06
8.72427e-06
8.72848e-06
8.73111e-06
8.73142e-06
8.73369e-06
8.73555e-06
8.73141e-06
8.73178e-06
8.73817e-06
8.73459e-06
8.73268e-06
8.7524e-06
8.74594e-06
8.7521e-06
8.74723e-06
8.75617e-06
8.75893e-06
8.75959e-06
8.79657e-06
8.82764e-06
8.81045e-06
8.77921e-06
8.93493e-06
8.70002e-06
8.70001e-06
8.70001e-06
8.70002e-06
8.70002e-06
8.70003e-06
8.70004e-06
8.70005e-06
8.70007e-06
8.70011e-06
8.70018e-06
8.70024e-06
8.70035e-06
8.70055e-06
8.70078e-06
8.70107e-06
8.70183e-06
8.70211e-06
8.7033e-06
8.7041e-06
8.70605e-06
8.70808e-06
8.71103e-06
8.7153e-06
8.71624e-06
8.72549e-06
8.72833e-06
8.7317e-06
8.73304e-06
8.73391e-06
8.73746e-06
8.73206e-06
8.73031e-06
8.7361e-06
8.73411e-06
8.7357e-06
8.75233e-06
8.74791e-06
8.75109e-06
8.75043e-06
8.75509e-06
8.75494e-06
8.76159e-06
8.79607e-06
8.83496e-06
8.90996e-06
8.86477e-06
8.90356e-06
8.70002e-06
8.70001e-06
8.70002e-06
8.70002e-06
8.70002e-06
8.70003e-06
8.70004e-06
8.70005e-06
8.70007e-06
8.70012e-06
8.70019e-06
8.70029e-06
8.7004e-06
8.70065e-06
8.70094e-06
8.70103e-06
8.70186e-06
8.70255e-06
8.70362e-06
8.70446e-06
8.70615e-06
8.70908e-06
8.71088e-06
8.71759e-06
8.71796e-06
8.72723e-06
8.73027e-06
8.73311e-06
8.73473e-06
8.73404e-06
8.73824e-06
8.73559e-06
8.73317e-06
8.73926e-06
8.73077e-06
8.74055e-06
8.74711e-06
8.74992e-06
8.74359e-06
8.74083e-06
8.75966e-06
8.75732e-06
8.76132e-06
8.7851e-06
8.879e-06
8.99805e-06
8.9379e-06
8.94772e-06
8.70002e-06
8.70002e-06
8.70002e-06
8.70002e-06
8.70002e-06
8.70003e-06
8.70004e-06
8.70005e-06
8.70008e-06
8.70012e-06
8.70018e-06
8.70027e-06
8.70033e-06
8.70058e-06
8.70078e-06
8.70117e-06
8.70207e-06
8.70279e-06
8.70344e-06
8.70518e-06
8.70596e-06
8.70906e-06
8.71166e-06
8.71768e-06
8.71993e-06
8.72791e-06
8.73097e-06
8.73409e-06
8.73725e-06
8.73364e-06
8.7395e-06
8.73514e-06
8.73439e-06
8.73537e-06
8.73404e-06
8.73891e-06
8.74209e-06
8.74599e-06
8.74722e-06
8.75027e-06
8.75148e-06
8.75601e-06
8.75736e-06
8.80425e-06
8.89591e-06
8.94747e-06
9.07745e-06
8.96314e-06
8.70002e-06
8.70002e-06
8.70002e-06
8.70002e-06
8.70002e-06
8.70003e-06
8.70004e-06
8.70005e-06
8.70008e-06
8.70013e-06
8.70019e-06
8.70027e-06
8.70039e-06
8.70063e-06
8.70092e-06
8.70132e-06
8.7021e-06
8.70299e-06
8.70376e-06
8.70578e-06
8.7068e-06
8.71055e-06
8.71309e-06
8.71712e-06
8.72177e-06
8.72777e-06
8.73273e-06
8.73587e-06
8.73725e-06
8.7326e-06
8.73793e-06
8.73795e-06
8.7372e-06
8.73722e-06
8.73532e-06
8.74103e-06
8.74204e-06
8.74399e-06
8.74977e-06
8.75511e-06
8.76168e-06
8.76765e-06
8.7711e-06
8.81907e-06
8.84388e-06
9.04109e-06
9.17635e-06
9.03292e-06
8.70002e-06
8.70002e-06
8.70002e-06
8.70002e-06
8.70002e-06
8.70003e-06
8.70004e-06
8.70005e-06
8.70008e-06
8.70013e-06
8.70019e-06
8.70026e-06
8.70038e-06
8.70062e-06
8.70096e-06
8.70153e-06
8.70223e-06
8.70333e-06
8.70366e-06
8.70582e-06
8.70766e-06
8.71085e-06
8.71383e-06
8.71848e-06
8.72381e-06
8.73033e-06
8.73243e-06
8.73532e-06
8.73607e-06
8.73409e-06
8.73995e-06
8.7376e-06
8.74036e-06
8.7373e-06
8.73696e-06
8.7381e-06
8.74206e-06
8.74409e-06
8.75194e-06
8.75377e-06
8.76526e-06
8.78215e-06
8.78748e-06
8.8876e-06
8.89105e-06
9.01122e-06
9.14299e-06
9.14933e-06
8.70002e-06
8.70002e-06
8.70002e-06
8.70002e-06
8.70003e-06
8.70003e-06
8.70004e-06
8.70006e-06
8.70009e-06
8.70015e-06
8.70019e-06
8.7003e-06
8.70046e-06
8.70069e-06
8.70106e-06
8.70169e-06
8.70237e-06
8.7032e-06
8.70426e-06
8.70603e-06
8.70839e-06
8.71168e-06
8.71397e-06
8.71778e-06
8.7237e-06
8.72845e-06
8.73208e-06
8.73522e-06
8.73913e-06
8.73703e-06
8.73949e-06
8.73796e-06
8.73754e-06
8.73702e-06
8.73623e-06
8.7395e-06
8.73756e-06
8.74197e-06
8.75177e-06
8.75567e-06
8.77105e-06
8.79701e-06
8.81662e-06
8.96111e-06
8.8871e-06
9.02109e-06
9.14811e-06
9.1942e-06
8.70002e-06
8.70002e-06
8.70002e-06
8.70002e-06
8.70003e-06
8.70003e-06
8.70005e-06
8.70006e-06
8.70009e-06
8.70015e-06
8.70021e-06
8.70033e-06
8.7005e-06
8.70069e-06
8.70119e-06
8.70169e-06
8.70259e-06
8.70359e-06
8.7047e-06
8.70623e-06
8.70851e-06
8.71188e-06
8.71424e-06
8.71892e-06
8.72362e-06
8.72898e-06
8.73147e-06
8.73535e-06
8.73755e-06
8.73691e-06
8.7389e-06
8.73738e-06
8.73788e-06
8.73688e-06
8.73694e-06
8.739e-06
8.73965e-06
8.73949e-06
8.75105e-06
8.76109e-06
8.77401e-06
8.8535e-06
8.87572e-06
9.06168e-06
9.04366e-06
9.01962e-06
9.16762e-06
9.11351e-06
8.70002e-06
8.70002e-06
8.70002e-06
8.70002e-06
8.70003e-06
8.70004e-06
8.70004e-06
8.70007e-06
8.70009e-06
8.70015e-06
8.70022e-06
8.70036e-06
8.7005e-06
8.70077e-06
8.7012e-06
8.7018e-06
8.70265e-06
8.70367e-06
8.70518e-06
8.70669e-06
8.70868e-06
8.71221e-06
8.7142e-06
8.71855e-06
8.72213e-06
8.72882e-06
8.73155e-06
8.73447e-06
8.7383e-06
8.73701e-06
8.73663e-06
8.7372e-06
8.73673e-06
8.73658e-06
8.73495e-06
8.73767e-06
8.73971e-06
8.73921e-06
8.75001e-06
8.77392e-06
8.77612e-06
8.89e-06
8.94566e-06
9.11581e-06
9.27581e-06
9.06424e-06
9.00629e-06
9.39067e-06
8.70002e-06
8.70002e-06
8.70002e-06
8.70002e-06
8.70003e-06
8.70004e-06
8.70005e-06
8.70008e-06
8.7001e-06
8.70016e-06
8.70022e-06
8.70037e-06
8.70048e-06
8.70082e-06
8.70117e-06
8.70187e-06
8.70271e-06
8.70368e-06
8.70532e-06
8.70714e-06
8.70857e-06
8.71234e-06
8.71445e-06
8.71836e-06
8.7234e-06
8.72656e-06
8.73093e-06
8.73431e-06
8.73703e-06
8.73415e-06
8.7359e-06
8.73571e-06
8.73656e-06
8.73537e-06
8.73561e-06
8.73694e-06
8.73906e-06
8.73936e-06
8.7502e-06
8.78524e-06
8.78718e-06
8.87449e-06
8.88977e-06
9.12948e-06
9.38285e-06
8.97919e-06
9.08911e-06
9.51718e-06
8.70002e-06
8.70002e-06
8.70002e-06
8.70002e-06
8.70003e-06
8.70004e-06
8.70004e-06
8.70008e-06
8.7001e-06
8.70016e-06
8.70022e-06
8.70037e-06
8.70054e-06
8.70089e-06
8.70127e-06
8.7019e-06
8.7027e-06
8.70365e-06
8.7055e-06
8.70707e-06
8.70818e-06
8.71253e-06
8.71386e-06
8.71728e-06
8.72359e-06
8.72631e-06
8.73036e-06
8.73345e-06
8.73646e-06
8.73447e-06
8.73413e-06
8.73331e-06
8.73576e-06
8.73468e-06
8.73401e-06
8.73391e-06
8.73667e-06
8.73971e-06
8.74916e-06
8.79067e-06
8.8073e-06
8.86526e-06
8.93269e-06
9.14832e-06
9.21678e-06
9.05865e-06
9.12268e-06
9.68156e-06
8.70002e-06
8.70002e-06
8.70002e-06
8.70003e-06
8.70003e-06
8.70004e-06
8.70005e-06
8.70008e-06
8.70011e-06
8.70018e-06
8.70021e-06
8.70037e-06
8.7006e-06
8.7009e-06
8.7012e-06
8.702e-06
8.70291e-06
8.70378e-06
8.70581e-06
8.70749e-06
8.70877e-06
8.71246e-06
8.71479e-06
8.71714e-06
8.72177e-06
8.72513e-06
8.72816e-06
8.73263e-06
8.73358e-06
8.73379e-06
8.73256e-06
8.73279e-06
8.73272e-06
8.73127e-06
8.73186e-06
8.73171e-06
8.73494e-06
8.7392e-06
8.75009e-06
8.79015e-06
8.83426e-06
8.84553e-06
8.9608e-06
9.1654e-06
9.23862e-06
8.97214e-06
9.1463e-06
9.59863e-06
8.70003e-06
8.70002e-06
8.70002e-06
8.70003e-06
8.70003e-06
8.70004e-06
8.70005e-06
8.70008e-06
8.70011e-06
8.70018e-06
8.70023e-06
8.7004e-06
8.70061e-06
8.70089e-06
8.70128e-06
8.70194e-06
8.70292e-06
8.7041e-06
8.7058e-06
8.70705e-06
8.70942e-06
8.71236e-06
8.71445e-06
8.71711e-06
8.72159e-06
8.724e-06
8.72726e-06
8.72941e-06
8.73295e-06
8.73031e-06
8.73133e-06
8.73123e-06
8.73145e-06
8.72993e-06
8.73034e-06
8.73043e-06
8.73332e-06
8.73623e-06
8.75524e-06
8.80053e-06
8.87043e-06
8.89705e-06
9.03297e-06
9.15227e-06
9.13368e-06
9.04031e-06
9.17204e-06
9.5322e-06
8.70003e-06
8.70002e-06
8.70002e-06
8.70003e-06
8.70003e-06
8.70004e-06
8.70006e-06
8.70009e-06
8.70013e-06
8.70018e-06
8.70024e-06
8.70042e-06
8.70063e-06
8.70086e-06
8.70123e-06
8.70202e-06
8.703e-06
8.70412e-06
8.70555e-06
8.70743e-06
8.70941e-06
8.71151e-06
8.71436e-06
8.71599e-06
8.72114e-06
8.72261e-06
8.72562e-06
8.72839e-06
8.72939e-06
8.72894e-06
8.72932e-06
8.72954e-06
8.72913e-06
8.72774e-06
8.72877e-06
8.72874e-06
8.73067e-06
8.73356e-06
8.75277e-06
8.78379e-06
8.89227e-06
8.92294e-06
9.05199e-06
9.15284e-06
9.23658e-06
9.11978e-06
9.11253e-06
9.55972e-06
8.70003e-06
8.70002e-06
8.70002e-06
8.70003e-06
8.70003e-06
8.70004e-06
8.70006e-06
8.70009e-06
8.70013e-06
8.70018e-06
8.70026e-06
8.70041e-06
8.70064e-06
8.70094e-06
8.70136e-06
8.70199e-06
8.70299e-06
8.70395e-06
8.70578e-06
8.70742e-06
8.70941e-06
8.71167e-06
8.71303e-06
8.71668e-06
8.71926e-06
8.72183e-06
8.7242e-06
8.72674e-06
8.72796e-06
8.72649e-06
8.72684e-06
8.72757e-06
8.72731e-06
8.72465e-06
8.72675e-06
8.72742e-06
8.72928e-06
8.73186e-06
8.76166e-06
8.77366e-06
8.8739e-06
8.92369e-06
9.06721e-06
9.21731e-06
9.35735e-06
9.1595e-06
9.13197e-06
9.6262e-06
8.70003e-06
8.70003e-06
8.70003e-06
8.70003e-06
8.70004e-06
8.70004e-06
8.70006e-06
8.70009e-06
8.70013e-06
8.7002e-06
8.70028e-06
8.70046e-06
8.70065e-06
8.701e-06
8.70141e-06
8.70199e-06
8.703e-06
8.70421e-06
8.70562e-06
8.70739e-06
8.70918e-06
8.71156e-06
8.71285e-06
8.71517e-06
8.7181e-06
8.72115e-06
8.72258e-06
8.72458e-06
8.72597e-06
8.72529e-06
8.72534e-06
8.72522e-06
8.72485e-06
8.72211e-06
8.72492e-06
8.72554e-06
8.72672e-06
8.7308e-06
8.76018e-06
8.77003e-06
8.87538e-06
8.93466e-06
9.10277e-06
9.2018e-06
9.31327e-06
9.10129e-06
9.13872e-06
9.49277e-06
8.70003e-06
8.70003e-06
8.70002e-06
8.70003e-06
8.70004e-06
8.70005e-06
8.70006e-06
8.70009e-06
8.70013e-06
8.70019e-06
8.70028e-06
8.70045e-06
8.70065e-06
8.70095e-06
8.70136e-06
8.70199e-06
8.70291e-06
8.70391e-06
8.70554e-06
8.70735e-06
8.70867e-06
8.71054e-06
8.71234e-06
8.71466e-06
8.71681e-06
8.72023e-06
8.72069e-06
8.72196e-06
8.72405e-06
8.72361e-06
8.72374e-06
8.7222e-06
8.72223e-06
8.71877e-06
8.72262e-06
8.72387e-06
8.72528e-06
8.72943e-06
8.75915e-06
8.76612e-06
8.86564e-06
8.94633e-06
9.13204e-06
9.20831e-06
9.31844e-06
9.12515e-06
9.17237e-06
9.52978e-06
8.70003e-06
8.70003e-06
8.70003e-06
8.70003e-06
8.70004e-06
8.70005e-06
8.70006e-06
8.7001e-06
8.70013e-06
8.7002e-06
8.7003e-06
8.70045e-06
8.70063e-06
8.701e-06
8.70132e-06
8.70198e-06
8.70287e-06
8.70389e-06
8.70514e-06
8.70727e-06
8.70865e-06
8.7102e-06
8.71148e-06
8.71369e-06
8.71519e-06
8.71864e-06
8.71853e-06
8.72056e-06
8.72149e-06
8.72184e-06
8.72154e-06
8.72053e-06
8.71988e-06
8.71734e-06
8.71991e-06
8.72126e-06
8.72247e-06
8.72802e-06
8.76152e-06
8.771e-06
8.86485e-06
8.9285e-06
9.14722e-06
9.2366e-06
9.29305e-06
9.11929e-06
9.17229e-06
9.53899e-06
8.70003e-06
8.70003e-06
8.70003e-06
8.70003e-06
8.70004e-06
8.70005e-06
8.70007e-06
8.7001e-06
8.70014e-06
8.7002e-06
8.7003e-06
8.70045e-06
8.70065e-06
8.70099e-06
8.70132e-06
8.70193e-06
8.70266e-06
8.70374e-06
8.70496e-06
8.70719e-06
8.70853e-06
8.70977e-06
8.71039e-06
8.71214e-06
8.71436e-06
8.71638e-06
8.71684e-06
8.71829e-06
8.71946e-06
8.7199e-06
8.71954e-06
8.71756e-06
8.71696e-06
8.71517e-06
8.71733e-06
8.71886e-06
8.72046e-06
8.72622e-06
8.74724e-06
8.7599e-06
8.80867e-06
9.01138e-06
9.15307e-06
9.17219e-06
9.29814e-06
9.09429e-06
9.14101e-06
9.56253e-06
8.70003e-06
8.70003e-06
8.70003e-06
8.70003e-06
8.70004e-06
8.70005e-06
8.70007e-06
8.7001e-06
8.70013e-06
8.70019e-06
8.70031e-06
8.70045e-06
8.70063e-06
8.70092e-06
8.70132e-06
8.7019e-06
8.70263e-06
8.70357e-06
8.70482e-06
8.70665e-06
8.70777e-06
8.70944e-06
8.70981e-06
8.71146e-06
8.71312e-06
8.71517e-06
8.71476e-06
8.71623e-06
8.71709e-06
8.71661e-06
8.71611e-06
8.71502e-06
8.71498e-06
8.71313e-06
8.71447e-06
8.71639e-06
8.71804e-06
8.72439e-06
8.75129e-06
8.77705e-06
8.82829e-06
9.01475e-06
9.14107e-06
9.19139e-06
9.18281e-06
9.1757e-06
9.15647e-06
9.48815e-06
8.70004e-06
8.70003e-06
8.70003e-06
8.70003e-06
8.70004e-06
8.70005e-06
8.70007e-06
8.7001e-06
8.70014e-06
8.70021e-06
8.70029e-06
8.70045e-06
8.7006e-06
8.70092e-06
8.70131e-06
8.70178e-06
8.70254e-06
8.70346e-06
8.70472e-06
8.70651e-06
8.70743e-06
8.70912e-06
8.70895e-06
8.71052e-06
8.71207e-06
8.71294e-06
8.71268e-06
8.71472e-06
8.71415e-06
8.71355e-06
8.71321e-06
8.71319e-06
8.71214e-06
8.71102e-06
8.7126e-06
8.71405e-06
8.71577e-06
8.72191e-06
8.74212e-06
8.77792e-06
8.84006e-06
8.98184e-06
9.12373e-06
9.1455e-06
9.22151e-06
9.26731e-06
9.16724e-06
9.53094e-06
8.70004e-06
8.70003e-06
8.70004e-06
8.70003e-06
8.70004e-06
8.70005e-06
8.70008e-06
8.70011e-06
8.70014e-06
8.70021e-06
8.7003e-06
8.70045e-06
8.7006e-06
8.70089e-06
8.70122e-06
8.70171e-06
8.70245e-06
8.70337e-06
8.70451e-06
8.70604e-06
8.70699e-06
8.70837e-06
8.70838e-06
8.70967e-06
8.71096e-06
8.71101e-06
8.71104e-06
8.71235e-06
8.71222e-06
8.71196e-06
8.71167e-06
8.71039e-06
8.70986e-06
8.70923e-06
8.71064e-06
8.71257e-06
8.71315e-06
8.71875e-06
8.73344e-06
8.77197e-06
8.85309e-06
9.06608e-06
9.1733e-06
9.11535e-06
9.16405e-06
9.28935e-06
9.21182e-06
9.61363e-06
8.70004e-06
8.70003e-06
8.70004e-06
8.70003e-06
8.70004e-06
8.70005e-06
8.70007e-06
8.7001e-06
8.70014e-06
8.70021e-06
8.7003e-06
8.70042e-06
8.70062e-06
8.70088e-06
8.7012e-06
8.70163e-06
8.70235e-06
8.70327e-06
8.70445e-06
8.70576e-06
8.70663e-06
8.70767e-06
8.70767e-06
8.7091e-06
8.70932e-06
8.70963e-06
8.70909e-06
8.71024e-06
8.70951e-06
8.70945e-06
8.70935e-06
8.70841e-06
8.70799e-06
8.70807e-06
8.70872e-06
8.7103e-06
8.71097e-06
8.71647e-06
8.73287e-06
8.77542e-06
8.84744e-06
9.09223e-06
9.18048e-06
9.14077e-06
9.10687e-06
9.29291e-06
9.19012e-06
9.61572e-06
8.70003e-06
8.70003e-06
8.70004e-06
8.70003e-06
8.70004e-06
8.70005e-06
8.70007e-06
8.70011e-06
8.70015e-06
8.70021e-06
8.7003e-06
8.70042e-06
8.70058e-06
8.70085e-06
8.70109e-06
8.70158e-06
8.70223e-06
8.70317e-06
8.70427e-06
8.70531e-06
8.70602e-06
8.70673e-06
8.70679e-06
8.70814e-06
8.70773e-06
8.70751e-06
8.70771e-06
8.70735e-06
8.70774e-06
8.7079e-06
8.70821e-06
8.70763e-06
8.70754e-06
8.70796e-06
8.70835e-06
8.7093e-06
8.70887e-06
8.71516e-06
8.7275e-06
8.76717e-06
8.824e-06
9.04045e-06
9.1181e-06
9.14402e-06
9.15453e-06
9.51355e-06
9.33543e-06
9.67197e-06
8.70004e-06
8.70003e-06
8.70004e-06
8.70004e-06
8.70005e-06
8.70005e-06
8.70008e-06
8.70011e-06
8.70014e-06
8.70021e-06
8.70029e-06
8.70041e-06
8.70062e-06
8.70083e-06
8.70105e-06
8.70152e-06
8.70215e-06
8.70305e-06
8.70385e-06
8.70499e-06
8.70572e-06
8.70629e-06
8.70616e-06
8.70731e-06
8.70669e-06
8.70617e-06
8.70582e-06
8.70576e-06
8.70721e-06
8.70753e-06
8.70844e-06
8.708e-06
8.70807e-06
8.70842e-06
8.70888e-06
8.70946e-06
8.70853e-06
8.71329e-06
8.72962e-06
8.76349e-06
8.83043e-06
9.03801e-06
9.20859e-06
9.12954e-06
9.21128e-06
9.48723e-06
9.32517e-06
9.67624e-06
8.70004e-06
8.70003e-06
8.70004e-06
8.70004e-06
8.70005e-06
8.70006e-06
8.70009e-06
8.70011e-06
8.70014e-06
8.7002e-06
8.70029e-06
8.70038e-06
8.70058e-06
8.70078e-06
8.70096e-06
8.70145e-06
8.70205e-06
8.70288e-06
8.7036e-06
8.7045e-06
8.70529e-06
8.70562e-06
8.70549e-06
8.70615e-06
8.70504e-06
8.7045e-06
8.70492e-06
8.70531e-06
8.70738e-06
8.70804e-06
8.70879e-06
8.70824e-06
8.7083e-06
8.70852e-06
8.70922e-06
8.7097e-06
8.70888e-06
8.71272e-06
8.71931e-06
8.73712e-06
8.82095e-06
9.06306e-06
9.18176e-06
9.1781e-06
9.09207e-06
9.30446e-06
9.27879e-06
9.7274e-06
8.70004e-06
8.70004e-06
8.70004e-06
8.70004e-06
8.70005e-06
8.70006e-06
8.70009e-06
8.70011e-06
8.70015e-06
8.70021e-06
8.70027e-06
8.70039e-06
8.70058e-06
8.70074e-06
8.70092e-06
8.70139e-06
8.7019e-06
8.7027e-06
8.70343e-06
8.70426e-06
8.70496e-06
8.70516e-06
8.70508e-06
8.7051e-06
8.70406e-06
8.70341e-06
8.70435e-06
8.70545e-06
8.70747e-06
8.70796e-06
8.71088e-06
8.70851e-06
8.71001e-06
8.71109e-06
8.71151e-06
8.71114e-06
8.70913e-06
8.71291e-06
8.71964e-06
8.73837e-06
8.76874e-06
9.02446e-06
9.17111e-06
9.2405e-06
9.12435e-06
9.33692e-06
9.3556e-06
9.64948e-06
8.70004e-06
8.70004e-06
8.70004e-06
8.70005e-06
8.70005e-06
8.70006e-06
8.70009e-06
8.70011e-06
8.70015e-06
8.70021e-06
8.70028e-06
8.70038e-06
8.70058e-06
8.70071e-06
8.70086e-06
8.70129e-06
8.7018e-06
8.70239e-06
8.70322e-06
8.70386e-06
8.70446e-06
8.70458e-06
8.70445e-06
8.70397e-06
8.70291e-06
8.70312e-06
8.70464e-06
8.70545e-06
8.70838e-06
8.7091e-06
8.71248e-06
8.71106e-06
8.71323e-06
8.71434e-06
8.7115e-06
8.71376e-06
8.70998e-06
8.71276e-06
8.71669e-06
8.74219e-06
8.79414e-06
9.10805e-06
9.30361e-06
9.3214e-06
9.13108e-06
9.33817e-06
9.31386e-06
9.77299e-06
8.70004e-06
8.70004e-06
8.70005e-06
8.70005e-06
8.70005e-06
8.70007e-06
8.70008e-06
8.70011e-06
8.70015e-06
8.70021e-06
8.70027e-06
8.70037e-06
8.70054e-06
8.70072e-06
8.70081e-06
8.70117e-06
8.70162e-06
8.70224e-06
8.70298e-06
8.70349e-06
8.70391e-06
8.70412e-06
8.70389e-06
8.70337e-06
8.7026e-06
8.70331e-06
8.70478e-06
8.7062e-06
8.71025e-06
8.71084e-06
8.71461e-06
8.71401e-06
8.71552e-06
8.71972e-06
8.71676e-06
8.71628e-06
8.7129e-06
8.71445e-06
8.71558e-06
8.7295e-06
8.78773e-06
9.07729e-06
9.39472e-06
9.1852e-06
9.12959e-06
9.42582e-06
9.30582e-06
9.71932e-06
8.70004e-06
8.70004e-06
8.70005e-06
8.70004e-06
8.70006e-06
8.70007e-06
8.70009e-06
8.70012e-06
8.70016e-06
8.70021e-06
8.70029e-06
8.70037e-06
8.70054e-06
8.70071e-06
8.70075e-06
8.70111e-06
8.7015e-06
8.70206e-06
8.7026e-06
8.70294e-06
8.70334e-06
8.70349e-06
8.70322e-06
8.70243e-06
8.70251e-06
8.70333e-06
8.70521e-06
8.7073e-06
8.71286e-06
8.71442e-06
8.71535e-06
8.71749e-06
8.72317e-06
8.72545e-06
8.72159e-06
8.72213e-06
8.71736e-06
8.71628e-06
8.71583e-06
8.73606e-06
8.79402e-06
9.04268e-06
9.44214e-06
9.3517e-06
9.14346e-06
9.30239e-06
9.33038e-06
9.89974e-06
8.70005e-06
8.70004e-06
8.70005e-06
8.70005e-06
8.70005e-06
8.70007e-06
8.70009e-06
8.70012e-06
8.70015e-06
8.70021e-06
8.7003e-06
8.70035e-06
8.70054e-06
8.70066e-06
8.70072e-06
8.70102e-06
8.70134e-06
8.70183e-06
8.70219e-06
8.7025e-06
8.70297e-06
8.7029e-06
8.70259e-06
8.70202e-06
8.70253e-06
8.70368e-06
8.70671e-06
8.70995e-06
8.71653e-06
8.71842e-06
8.72261e-06
8.72355e-06
8.72959e-06
8.73312e-06
8.72838e-06
8.72925e-06
8.72332e-06
8.72083e-06
8.71542e-06
8.73163e-06
8.77771e-06
8.97244e-06
9.29165e-06
9.19604e-06
9.17308e-06
9.42725e-06
9.35197e-06
9.95435e-06
8.70004e-06
8.70004e-06
8.70005e-06
8.70005e-06
8.70006e-06
8.70007e-06
8.7001e-06
8.70012e-06
8.70016e-06
8.70022e-06
8.70029e-06
8.70037e-06
8.70054e-06
8.70066e-06
8.7007e-06
8.70098e-06
8.70123e-06
8.7016e-06
8.70198e-06
8.70219e-06
8.70237e-06
8.70234e-06
8.70202e-06
8.70182e-06
8.70279e-06
8.7044e-06
8.70778e-06
8.71266e-06
8.72191e-06
8.72315e-06
8.72769e-06
8.73033e-06
8.7376e-06
8.74038e-06
8.73676e-06
8.73704e-06
8.73067e-06
8.72689e-06
8.71691e-06
8.74535e-06
8.78193e-06
8.93078e-06
9.41888e-06
9.40237e-06
9.25763e-06
9.41045e-06
9.36102e-06
9.95179e-06
8.70004e-06
8.70005e-06
8.70005e-06
8.70006e-06
8.70005e-06
8.70007e-06
8.7001e-06
8.70013e-06
8.70017e-06
8.7002e-06
8.7003e-06
8.70039e-06
8.70053e-06
8.70064e-06
8.70071e-06
8.7009e-06
8.70106e-06
8.70144e-06
8.70166e-06
8.7017e-06
8.70189e-06
8.70184e-06
8.70153e-06
8.70191e-06
8.70302e-06
8.70569e-06
8.70956e-06
8.71619e-06
8.72713e-06
8.7276e-06
8.73485e-06
8.73783e-06
8.74535e-06
8.74757e-06
8.74504e-06
8.74629e-06
8.73915e-06
8.73233e-06
8.71917e-06
8.7544e-06
8.78073e-06
8.8572e-06
9.24536e-06
9.49454e-06
9.32481e-06
9.37263e-06
9.34099e-06
1.00374e-05
8.70005e-06
8.70004e-06
8.70005e-06
8.70006e-06
8.70006e-06
8.70008e-06
8.7001e-06
8.70013e-06
8.70018e-06
8.70021e-06
8.70029e-06
8.70037e-06
8.70053e-06
8.70063e-06
8.70073e-06
8.70086e-06
8.70097e-06