/*--------------------------------*- C++ -*----------------------------------*\
  =========                 |
  \\      /  F ield         | OpenFOAM: The Open Source CFD Toolbox
   \\    /   O peration     | Website:  https://openfoam.org
    \\  /    A nd           | Version:  10
     \\/     M anipulation  |
\*---------------------------------------------------------------------------*/
FoamFile
{
    format      ascii;
    class       volScalarField;
    location    "10";
    object      p;
}
// * * * * * * * * * * * * * * * * * * * * * * * * * * * * * * * * * * * * * //

dimensions      [0 2 -2 0 0 0 0];

internalField   nonuniform List<scalar> 
38016
(
3.10026
1.69748
2.05999
2.26031
2.87516
3.64467
4.76596
5.54952
6.63415
8.01981
9.65509
11.9734
16.8354
24.4081
29.452
37.8838
42.5329
54.859
60.2493
69.9415
74.1978
70.6388
41.1304
4.71339
-72.709
-191.477
-245.478
-311.515
-364.547
-435.75
-458.862
-438.083
-465.696
-409.213
-411.733
-442.865
-379.131
-344.173
-278.982
-237.381
-206.737
-180.411
-177.982
-131.431
-106.713
-85.0828
-34.5522
-21.8216
3.10803
1.66114
2.03754
2.24223
2.85836
3.62662
4.72989
5.51083
6.58425
7.97629
9.54462
11.8607
16.7439
24.3475
29.3447
37.5851
40.9326
52.882
57.6467
65.9452
74.9338
70.299
36.0353
2.2362
-79.7603
-206.585
-251.278
-337.633
-395.184
-464.587
-469.582
-476.413
-493.001
-424.817
-395.494
-451.952
-371.319
-373.791
-322.811
-276.929
-236.626
-225.052
-247.804
-203.623
-174.081
-148.515
-88.371
-61.0664
3.11517
1.62645
2.02717
2.23751
2.83647
3.60814
4.69374
5.47179
6.53414
7.93062
9.39942
11.8474
16.7273
24.5613
28.7867
36.9402
40.6952
53.1144
56.9637
63.9609
72.9129
67.0751
35.622
-0.58418
-88.9531
-219.275
-270.43
-358.84
-421.796
-495.699
-500.559
-509.403
-516.802
-482.38
-467.219
-444.175
-371.588
-362.859
-327.115
-311.82
-270.654
-251.491
-253.954
-241.179
-187.942
-147.464
-106.592
-41.9187
3.12176
1.60864
2.01866
2.23761
2.84065
3.59073
4.65846
5.43296
6.48387
7.88373
9.09509
11.7474
16.4525
24.4378
28.5066
36.1738
40.322
51.3318
55.6615
62.5361
69.8463
62.5153
31.7352
-4.22006
-95.9744
-229.636
-284.342
-371.307
-435.074
-518.537
-529.889
-512.886
-517.636
-512.671
-501.557
-402.836
-370.857
-372.443
-355.005
-314.358
-300.516
-286.044
-251.8
-256.134
-216.092
-176.264
-151.554
-102.075
3.11331
1.59044
2.01937
2.21632
2.85511
3.57361
4.62298
5.39363
6.43318
7.83443
8.96193
11.7397
16.118
23.4917
28.0736
35.754
40.2695
50.8897
56.7574
64.4019
69.6959
62.5062
30.7864
-3.59374
-94.4075
-229.803
-288.159
-379.466
-443.669
-532.739
-548.424
-519.983
-505.377
-506.201
-498.147
-451.432
-413.108
-402.998
-380.225
-367.529
-349.199
-333.005
-334.682
-274.64
-251.24
-252.827
-194.184
-191.541
3.12004
1.57994
2.00521
2.2123
2.86771
3.55666
4.58769
5.35432
6.38267
7.78443
8.92121
11.5743
15.9687
23.2583
27.8231
35.8187
39.5209
50.891
58.8082
65.1309
70.1483
61.9494
30.8127
-5.36765
-96.3304
-235.284
-294.21
-389.426
-453.282
-543.239
-554.461
-545.829
-506.645
-530.229
-511.848
-503.266
-483.085
-460.235
-445.589
-426.603
-411.568
-385.236
-383.61
-364.894
-335.407
-310.41
-279.836
-249.543
3.12359
1.58748
1.97544
2.22365
2.87277
3.53982
4.55226
5.31457
6.33189
7.73322
8.88531
11.3549
15.8479
23.2679
27.8869
35.9215
39.3813
50.7219
59.1586
63.1644
67.869
57.958
25.7258
-13.246
-106.368
-249.624
-314.466
-411.033
-479.608
-573.778
-570.183
-586.454
-576.094
-542.414
-534.65
-559.716
-544.676
-517.463
-502.117
-475.19
-467.101
-432.929
-395.159
-381.175
-364.264
-337.73
-316.2
-311.054
3.14016
1.59673
1.95932
2.22925
2.87917
3.52318
4.51705
5.27488
6.28126
7.68222
8.74621
11.3276
15.7814
23.0715
27.7993
35.5796
39.3789
52.1448
58.4951
62.7692
66.4014
55.2729
23.1906
-17.2299
-110.401
-259.95
-322.239
-424.955
-498.877
-591.828
-581.936
-598.257
-639.903
-565.798
-545.353
-580.682
-562.763
-525.819
-520.325
-519.411
-502.224
-468.244
-424.085
-404.349
-374.549
-363.046
-353.074
-341.095
3.15488
1.59422
1.97354
2.22052
2.88729
3.50668
4.48156
5.23464
6.23024
7.6291
8.70156
11.3149
15.7273
22.8826
27.5805
35.6798
40.1907
53.5905
59.9116
62.2387
66.6226
55.9713
24.4942
-18.4348
-108.06
-260.553
-321.724
-432.281
-501.122
-595.953
-593.39
-597.428
-639.459
-635.324
-580.35
-610.932
-587.316
-561.394
-555.319
-559.006
-542.99
-503.253
-455.049
-441.193
-415.261
-404.766
-399.207
-384.99
3.15997
1.58362
1.99147
2.2273
2.88537
3.49042
4.44641
5.19458
6.17949
7.57507
8.69085
11.1905
15.7092
22.8833
27.6282
35.6459
41.1186
52.8029
63.2977
61.2565
68.0605
57.5453
27.2871
-19.8777
-108.822
-260.571
-324.554
-443.639
-501.382
-596.087
-612.399
-621.202
-633.431
-651.736
-659.259
-663.977
-636.505
-636.318
-603.316
-590.574
-575.841
-543.148
-514.468
-478.806
-463.814
-462.069
-448.502
-447.79
3.1902
1.59924
1.99541
2.24306
2.88251
3.47415
4.41092
5.15392
6.12824
7.51954
8.59777
11.233
15.5621
22.7401
27.5408
36.2208
42.8929
53.2666
64.5456
62.7878
68.3984
54.4374
23.5796
-24.0496
-114.107
-267.731
-337.235
-459.81
-517.815
-608.399
-610.384
-648.574
-646.01
-665.962
-680.967
-692.067
-659.391
-673.242
-661.692
-628.334
-595.113
-577.69
-557.162
-527.657
-516.33
-512.708
-492.717
-490.572
3.21572
1.61911
1.98198
2.25495
2.87481
3.45803
4.37581
5.11348
6.07727
7.46318
8.59107
11.2319
15.5454
22.8128
27.8025
37.5113
44.9249
53.465
64.472
65.3249
71.4005
55.5891
25.8436
-24.2714
-108.151
-268.083
-340.035
-461.295
-517.238
-602.93
-625.206
-644.538
-661.727
-701.699
-695.933
-698.87
-677.391
-682.263
-665.633
-662.48
-620.237
-599.389
-586.184
-561.084
-541.825
-523.034
-508.752
-498.788
3.23908
1.63206
1.99825
2.25631
2.86647
3.44161
4.34034
5.07242
6.02576
7.40549
8.61339
11.2976
15.8151
23.2797
28.5241
37.9418
45.919
54.379
64.3676
69.3293
74.286
58.0138
28.7567
-21.4469
-105.138
-263.576
-336.95
-479.005
-534.929
-597.168
-638.209
-645.573
-679.348
-729.525
-716.55
-707.637
-704.323
-689.402
-667.11
-676.341
-629.315
-619.293
-612.921
-607.347
-573.65
-539.3
-521.682
-511.812
3.27629
1.64799
2.02201
2.27135
2.85862
3.42534
4.30524
5.03159
5.9745
7.34797
8.5947
11.4592
16.0743
23.5933
29.1394
38.1377
47.4327
57.1945
63.9309
74.0154
75.3299
63.8091
35.7658
-16.0196
-107.698
-254.124
-332.018
-481.803
-553.785
-591.44
-640.997
-658.803
-681.246
-749.055
-730.222
-727.841
-732.51
-705.067
-683.931
-670.958
-642.669
-633.893
-626.346
-623.921
-589.551
-573.615
-561.251
-547.814
3.31312
1.67409
2.04325
2.28635
2.85067
3.40878
4.2698
4.99014
5.92266
7.28877
8.56499
11.6012
16.2842
23.7017
29.8372
38.7596
49.1202
59.3975
64.4728
74.5334
75.951
70.2111
43.7473
-16.2756
-104.705
-256.02
-336.885
-473.676
-557.867
-589.726
-648.948
-654.449
-671.733
-744.392
-735.097
-714.766
-729.028
-719.18
-701.404
-667.03
-646.283
-635.984
-632.073
-624.093
-610.873
-606.863
-595.065
-588.42
3.35838
1.68858
2.06538
2.3022
2.84322
3.39237
4.23472
4.94889
5.87101
7.22865
8.53813
11.6983
16.452
23.7871
30.5328
39.3382
49.7028
61.6627
65.1964
73.5955
77.339
72.251
48.2231
-17.7658
-107.527
-259.839
-346.357
-464.993
-554.157
-592.022
-656.356
-651.135
-692.182
-733.422
-747.458
-724.155
-718.103
-710.727
-705.046
-661.939
-642.486
-630.671
-632.283
-628.027
-625.922
-630.636
-631.464
-626.795
3.41121
1.69028
2.0891
2.32118
2.83579
3.37566
4.19929
4.90701
5.81873
7.16859
8.59289
11.7935
16.5948
23.7012
30.9631
39.3345
49.817
63.7484
66.9087
74.4658
79.6321
75.7702
53.0821
-17.8181
-112.16
-258.995
-356.321
-456.342
-545.941
-596.251
-664.042
-668.049
-715.918
-719.352
-737.204
-718.219
-725.161
-698.612
-681.256
-653.752
-657.593
-654.55
-655.879
-652.78
-656.461
-661.249
-659.332
-657.457
3.4501
1.71213
2.11523
2.33453
2.8288
3.3591
4.1642
4.86531
5.76657
7.10923
8.65186
11.7084
16.5138
23.6148
30.8477
39.2042
50.0016
64.8483
68.6792
75.0453
81.9198
79.5576
54.9154
-16.3173
-114.11
-257.408
-364.305
-464.084
-542.116
-613.567
-674.748
-691.954
-729.184
-709.708
-706.568
-718.934
-723.068
-698.918
-693.446
-675.139
-680.119
-683.986
-685.853
-688.609
-694.51
-692.697
-688.062
-684.459
3.50132
1.73813
2.13783
2.3465
2.8217
3.34223
4.12876
4.82294
5.71371
7.04936
8.70333
11.6163
16.3753
23.4577
30.7392
39.3203
49.9731
64.804
70.4133
75.5381
84.2582
81.3522
56.5064
-14.7423
-114.171
-255.735
-366.205
-476.175
-556.831
-630.414
-684.636
-712.133
-742.37
-718.664
-721.305
-734.762
-732.906
-707.861
-709.577
-701.669
-710.848
-714.546
-716.908
-717.203
-716.778
-715.612
-709.999
-703.587
3.55673
1.76163
2.15327
2.35725
2.81496
3.3255
4.09365
4.78071
5.66088
6.98926
8.65325
11.5111
16.2944
23.3491
30.6588
39.4956
50.2844
64.5865
72.1551
77.7056
86.5442
82.5359
55.0499
-13.0918
-111.46
-253.879
-366.905
-484.757
-571.769
-643.202
-695.199
-731.865
-753.275
-737.593
-750.62
-761.13
-747.453
-731.798
-737.124
-735.148
-738.389
-742.449
-741.595
-736.958
-739.794
-739.8
-731.446
-722.86
3.61302
1.78444
2.16666
2.36533
2.80793
3.30845
4.05816
4.73778
5.60726
6.92665
8.57961
11.4126
16.2345
23.2787
30.6777
40.1002
51.2692
64.826
73.8891
79.964
88.7794
81.1234
54.8076
-11.2281
-108.561
-251.774
-367.69
-492.511
-577.728
-651.751
-705.23
-744.029
-764.874
-761.068
-776.79
-785.008
-770.577
-759.142
-760.603
-764.337
-770.316
-769.469
-760.213
-756.582
-757.23
-751.919
-746.153
-744.354
3.66864
1.80748
2.18106
2.37344
2.80118
3.29155
4.02299
4.69494
5.55357
6.86296
8.48892
11.3868
16.2361
23.4016
31.0092
40.702
52.2443
66.0363
75.5966
82.1606
90.8583
80.9383
57.1283
-9.33204
-105.76
-249.584
-368.13
-494.54
-582.209
-659.091
-714.82
-754.82
-777.578
-786.637
-801.842
-805.553
-791.579
-786.581
-795.341
-796.911
-797.448
-791.931
-783.514
-776.553
-770.863
-773.907
-774.478
-764.715
3.7215
1.83225
2.19521
2.38117
2.79413
3.27429
3.9874
4.65132
5.49894
6.796
8.39833
11.3698
16.2724
23.5304
31.3405
41.2864
53.199
67.2625
77.2635
84.312
92.8735
82.7293
59.3921
-7.41109
-103.008
-247.229
-368.368
-495.808
-586.779
-666.161
-723.923
-765.818
-792.218
-810.709
-822.986
-823.373
-813.839
-818.795
-827.566
-824.206
-822.046
-813.437
-804.241
-794.526
-792.421
-795.515
-796.994
-798.825
3.77509
1.85061
2.20974
2.38913
2.78735
3.25717
3.95211
4.60774
5.44412
6.72868
8.34333
11.3481
16.3041
23.6482
31.6594
41.858
54.13
68.4543
78.8854
86.3906
94.8031
84.5321
61.5244
-5.51941
-100.373
-244.821
-368.329
-496.842
-590.897
-672.686
-732.591
-776.372
-805.708
-826.211
-841.151
-840.1
-833.844
-841.082
-848.673
-846.997
-840.973
-835.622
-828.428
-825.802
-823.668
-822.04
-821.041
-821.434
3.82818
1.8674
2.22387
2.39666
2.78026
3.23967
3.91638
4.56331
5.3882
6.66
8.29337
11.3233
16.3305
23.7584
31.9653
42.4087
55.0309
69.6044
80.4474
88.3868
96.6311
86.2639
63.4631
-3.68881
-97.8839
-242.364
-368.128
-497.677
-594.781
-678.772
-740.817
-786.538
-818.106
-839.343
-853.924
-856.907
-855.258
-866.032
-870.381
-864.031
-859.186
-853.656
-853.768
-853.142
-846.343
-843.247
-843.295
-842.236
3.8811
1.88478
2.23831
2.40444
2.77344
3.2223
3.8809
4.51882
5.3319
6.59067
8.2391
11.2949
16.3511
23.8586
32.2561
42.9383
55.8978
70.7074
81.9422
90.2835
98.3359
87.8689
65.2044
-1.96782
-95.5935
-239.93
-367.754
-498.26
-598.331
-684.436
-748.617
-796.22
-829.671
-852.283
-867.088
-873.96
-878.506
-888.842
-887.037
-882.79
-878.962
-880.959
-884.294
-878.478
-872.117
-867.67
-863.71
-863.536
3.93378
1.90195
2.25238
2.41175
2.76631
3.20452
3.84493
4.47339
5.27432
6.51962
8.18269
11.2615
16.3641
23.9466
32.528
43.4397
56.7223
71.7503
83.3525
92.0618
99.893
89.3372
66.6919
-0.409029
-93.5493
-237.569
-367.289
-498.711
-601.625
-689.715
-756.007
-805.441
-840.572
-864.507
-880.499
-890.112
-897.093
-903.338
-903.001
-900.79
-897.01
-901.744
-899.163
-899.878
-901.258
-896.77
-893.213
-894.381
3.98617
1.91917
2.26673
2.41932
2.75943
3.18685
3.80918
4.4278
5.21616
6.44752
8.12351
11.2234
16.3691
24.0215
32.7792
43.9107
57.4994
72.7272
84.6686
93.7033
101.28
90.6239
67.8987
0.936168
-91.8075
-235.344
-366.765
-499.025
-604.646
-694.646
-763.002
-814.202
-850.909
-876.305
-893.658
-905.229
-913.436
-918.976
-921.231
-921.491
-920.248
-916.89
-920.727
-926.856
-923.788
-922.52
-921.732
-921.368
4.03833
1.93629
2.28072
2.42642
2.75222
3.16874
3.77288
4.38116
5.15648
6.37328
8.06055
11.1789
16.3639
24.08
33.0049
44.344
58.2192
73.623
85.8705
95.185
102.465
91.6936
68.7751
2.00276
-90.4252
-233.326
-366.251
-499.281
-607.446
-699.269
-769.633
-822.547
-860.781
-887.613
-906.375
-919.581
-929.254
-936.31
-941.01
-944.255
-944.604
-941.297
-941.008
-946.689
-942.897
-939.355
-936.146
-933.721
4.09017
1.95342
2.295
2.43376
2.74527
3.15072
3.73676
4.33425
5.09599
6.29754
7.99423
11.1281
16.3483
24.1212
33.2029
44.7362
58.8752
74.4295
86.9454
96.4847
103.423
92.5073
69.2824
2.7321
-89.4656
-231.582
-365.806
-499.514
-610.045
-703.622
-775.929
-830.513
-870.244
-898.496
-918.572
-933.092
-944.075
-952.812
-960.128
-966.882
-968.921
-966.464
-969.324
-968.388
-959.115
-957.527
-958.392
-958.044
4.14173
1.97045
2.30891
2.44061
2.73797
3.13223
3.70001
4.28616
5.03372
6.21917
7.92311
11.0692
16.3195
24.1414
33.3677
45.0788
59.456
75.1296
87.8702
97.5752
104.118
93.0169
69.3684
3.05147
-88.9929
-230.196
-365.5
-499.79
-612.495
-707.756
-781.935
-838.156
-879.369
-908.98
-930.221
-945.703
-957.453
-966.996
-975.556
-983.409
-987.874
-985.035
-975.625
-972.893
-971.927
-970.682
-972.422
-975.706
4.19293
1.9875
2.32309
2.4477
2.73091
3.11379
3.66338
4.23766
4.97036
6.13879
7.84768
11.0024
16.2772
24.1391
33.4965
45.3674
59.9533
75.7126
88.6292
98.4309
104.519
93.1811
68.9889
2.89619
-89.0747
-229.241
-365.404
-500.162
-614.837
-711.705
-787.687
-845.518
-888.205
-919.135
-941.415
-957.531
-969.351
-978.214
-985.08
-989.663
-991.598
-993.367
-995.591
-997.599
-995.784
-996.649
-998.408
-1000.83
4.24384
2.00442
2.33691
2.45428
2.72348
3.09484
3.62606
4.18784
4.90494
6.05521
7.76638
10.9256
16.2183
24.1104
33.5831
45.5925
60.354
76.159
89.196
99.0206
104.586
92.9454
68.0883
2.18987
-89.7783
-228.802
-365.592
-500.695
-617.124
-715.527
-793.235
-852.656
-896.813
-929.047
-952.334
-969.035
-980.912
-989.382
-995.635
-997.388
-1000.28
-1004.69
-1007.59
-1009.24
-1006.33
-1002.1
-999.364
-998.139
4.29437
2.02137
2.35098
2.46109
2.71628
3.07592
3.58879
4.13748
4.83814
5.96907
7.6797
10.8389
16.1424
24.0533
33.6239
45.7484
60.6482
76.4559
89.552
99.3152
104.286
92.2647
66.6198
0.864749
-91.1719
-228.956
-366.139
-501.446
-619.406
-719.258
-798.617
-859.607
-905.234
-938.785
-963.137
-980.501
-992.375
-999.673
-1002.66
-1008.88
-1013.65
-1017.87
-1020.56
-1018.11
-1014.89
-1017.77
-1019.84
-1018.23
4.34457
2.03818
2.36469
2.46737
2.7087
3.05645
3.55076
4.08564
4.76897
5.87913
7.58598
10.74
16.0462
23.9635
33.612
45.8247
60.8209
76.5816
89.6678
99.2803
103.575
91.0818
64.5263
-1.15355
-93.3211
-229.786
-367.118
-502.478
-621.737
-722.949
-803.881
-866.41
-913.499
-948.394
-973.935
-992.361
-1005.31
-1014.13
-1020.05
-1027.69
-1033.78
-1036.13
-1033.71
-1032.79
-1034.95
-1036.53
-1033.46
-1032.48
4.39438
2.055
2.37862
2.47388
2.70133
3.03697
3.51271
4.0331
4.69813
5.78602
7.48572
10.6291
15.9291
23.8389
33.5432
45.8145
60.8608
76.5209
89.522
98.8842
102.417
89.3498
61.7612
-3.9303
-96.2892
-231.361
-368.604
-503.848
-624.175
-726.634
-809.06
-873.088
-921.614
-957.853
-984.651
-1004.31
-1018.55
-1028.77
-1036.27
-1038.71
-1045.78
-1050.27
-1054.64
-1056.11
-1052.9
-1052.19
-1053.62
-1054.41
4.44385
2.07167
2.3922
2.47985
2.69356
3.0169
3.47382
3.97894
4.62461
5.68851
7.37721
10.5039
15.7876
23.6746
33.4101
45.7063
60.751
76.25
89.0827
98.0902
100.765
87.0116
58.2693
-7.53302
-100.134
-233.755
-370.663
-505.615
-626.767
-730.359
-814.191
-879.663
-929.576
-967.109
-995.138
-1016.05
-1031.53
-1042.68
-1050.1
-1060.13
-1066.69
-1069.38
-1072.29
-1071.22
-1067.62
-1062.84
-1060.24
-1061.17
4.4929
2.08836
2.40597
2.48603
2.68599
2.9968
3.43483
3.92394
4.5491
5.58722
7.26096
10.3642
15.6209
23.4683
33.2078
45.4924
60.4794
75.7521
88.3269
96.8653
98.5841
84.0215
54.0074
-12.0188
-104.909
-237.027
-373.36
-507.827
-629.566
-734.154
-819.299
-886.149
-937.376
-976.107
-1005.24
-1027.32
-1044.31
-1058.02
-1070.36
-1076.8
-1078.82
-1084.45
-1086.29
-1085.81
-1086.53
-1088.19
-1083.76
-1077.12
4.54155
2.10491
2.41938
2.49165
2.67799
2.97607
3.39494
3.86718
4.47063
5.48092
7.13524
10.208
15.4256
23.215
32.9285
45.1606
60.0277
75.0022
87.2213
95.1724
95.8281
80.3265
48.9265
-17.4413
-110.657
-241.231
-376.747
-510.531
-632.609
-738.051
-824.408
-892.561
-945.015
-984.816
-1014.83
-1037.55
-1054.59
-1067.04
-1075.2
-1086.6
-1091.97
-1094.62
-1098.74
-1102.73
-1103.76
-1102.36
-1102.05
-1105.6
4.58971
2.12148
2.43296
2.49747
2.67019
2.95527
3.35489
3.80944
4.3899
5.37025
7.00061
10.0351
15.2008
22.9121
32.5672
44.7025
59.3832
73.9824
85.7422
92.9795
92.4627
75.8867
42.9918
-23.8426
-117.413
-246.406
-380.875
-513.765
-635.937
-742.075
-829.537
-898.912
-952.505
-993.262
-1024.05
-1047.42
-1065.25
-1079.11
-1089.83
-1097.55
-1107.05
-1113.3
-1112.78
-1106.5
-1105.54
-1105.89
-1105.72
-1107.05
4.63741
2.1379
2.44617
2.50272
2.66193
2.9338
3.31386
3.74981
4.30594
5.25402
6.85536
9.84333
14.9431
22.5545
32.1159
44.1057
58.5275
72.6678
83.8573
90.2515
88.4466
70.6576
36.165
-31.2573
-125.201
-252.583
-385.772
-517.559
-639.572
-746.24
-834.696
-905.216
-959.867
-1001.46
-1032.81
-1056.49
-1074.46
-1088.47
-1099.58
-1108.07
-1115.58
-1120.89
-1121.45
-1120.33
-1117.36
-1115.15
-1111.13
-1103.98
4.68456
2.15435
2.45954
2.50817
2.65387
2.91225
3.27263
3.6891
4.2195
5.13292
6.70012
9.63273
14.6519
22.14
31.5697
43.3619
57.4483
71.0412
81.5445
86.9603
83.7511
64.6096
28.4244
-39.7068
-134.034
-259.776
-391.469
-521.93
-643.54
-750.559
-839.896
-911.489
-967.141
-1009.49
-1041.19
-1064.72
-1081.79
-1093.86
-1101.89
-1112.37
-1121.87
-1128.64
-1127.31
-1124.24
-1124.19
-1123.55
-1120.52
-1116.05
4.7312
2.17064
2.47253
2.51302
2.64532
2.89001
3.23037
3.6264
4.12962
5.00579
6.53328
9.40128
14.3238
21.6636
30.921
42.459
56.1281
69.0793
78.7748
83.076
78.3433
57.712
19.7482
-49.201
-143.909
-267.986
-397.968
-526.887
-647.841
-755.028
-845.132
-917.742
-974.386
-1017.5
-1049.6
-1073.11
-1089.78
-1101.23
-1108.55
-1121.44
-1131.94
-1139.17
-1138.31
-1129.77
-1124.87
-1121.83
-1117.01
-1113.95
4.77726
2.18694
2.48565
2.51807
2.63696
2.86766
3.18786
3.56254
4.03709
4.87339
6.35558
9.14913
13.9584
21.1235
30.1657
41.3901
54.5564
66.7676
75.5305
78.5786
72.2048
49.9509
10.133
-59.7358
-154.813
-277.198
-405.273
-532.424
-652.478
-759.643
-850.395
-923.979
-981.635
-1025.61
-1058.35
-1082.28
-1099.38
-1111.72
-1120.91
-1129.71
-1136.37
-1138.79
-1137.25
-1135.06
-1127.57
-1124.81
-1122.54
-1122.27
4.82274
2.20307
2.4984
2.5225
2.62811
2.8446
3.14429
3.49666
3.941
4.73465
6.16554
8.87456
13.5529
20.5153
29.297
40.1444
52.7187
64.087
71.7891
73.4473
65.3156
41.3137
-0.42227
-71.2934
-166.714
-287.382
-413.358
-538.524
-657.425
-764.375
-855.655
-930.17
-988.875
-1033.84
-1067.44
-1092.01
-1109.36
-1121.19
-1128.67
-1132.75
-1137.39
-1142.31
-1143.74
-1144.44
-1142.62
-1140.08
-1133.41
-1127.54
4.86757
2.21922
2.51126
2.52713
2.61944
2.82144
3.10045
3.42958
3.8422
4.59041
5.96408
8.57798
13.1075
19.8381
28.3124
38.7172
50.6078
61.0285
67.5414
67.6736
57.6723
31.8065
-11.899
-83.8424
-179.572
-298.495
-422.198
-545.155
-662.663
-769.198
-860.88
-936.272
-996.035
-1042.07
-1076.69
-1102.18
-1120.3
-1132.59
-1139.97
-1143.18
-1150.59
-1158.06
-1161.15
-1164.26
-1163.07
-1162.2
-1156.91
-1156.63
4.91176
2.23517
2.52373
2.53113
2.61026
2.79755
3.05555
3.36047
3.73982
4.43971
5.74992
8.25801
12.6198
19.0886
27.2069
37.1007
48.2139
57.5797
62.7746
61.2503
49.2725
21.4392
-24.2734
-97.3361
-193.326
-310.473
-431.736
-552.274
-668.144
-774.061
-866.009
-942.216
-1003.03
-1050.15
-1085.85
-1112.5
-1132.19
-1146.92
-1158.26
-1167.45
-1176.44
-1182.57
-1177.63
-1167.33
-1168.9
-1172.33
-1173.62
-1176.88
4.95523
2.25111
2.53629
2.53532
2.60127
2.77356
3.0104
3.29021
3.63477
4.28348
5.52418
7.91548
12.0908
18.2671
25.9799
35.2936
45.5355
53.7396
57.4908
54.1845
40.132
10.2413
-37.5021
-111.715
-207.908
-323.245
-441.92
-559.829
-673.824
-778.917
-870.99
-947.933
-1009.76
-1057.94
-1094.63
-1122.06
-1142.24
-1156.92
-1167.39
-1174.59
-1178.74
-1187.24
-1192.56
-1196.71
-1197.84
-1197.32
-1199.01
-1200.55
4.99799
2.26685
2.54846
2.53888
2.59176
2.74886
2.96419
3.21797
3.52624
4.1209
5.28583
7.54948
11.519
17.3716
24.6292
33.2922
42.5691
49.5054
51.6909
46.4858
30.2693
-1.75274
-51.5354
-126.905
-223.232
-336.721
-452.664
-567.75
-679.634
-783.694
-875.742
-953.339
-1016.14
-1065.36
-1102.98
-1131.13
-1151.81
-1166.82
-1177.61
-1185.43
-1190.7
-1194.82
-1192.63
-1190.36
-1188.64
-1187.75
-1183.76
-1178.51
5.03995
2.28258
2.56067
2.54263
2.58245
2.72408
2.91776
3.14466
3.4152
3.95302
5.03623
7.16129
10.9063
16.4042
23.1572
31.1002
39.3207
44.8867
45.3911
38.1796
19.7218
-14.4895
-66.3057
-142.822
-239.206
-350.806
-463.893
-575.963
-685.513
-788.33
-880.197
-958.356
-1022.08
-1072.3
-1110.86
-1139.81
-1161.04
-1176.06
-1185.9
-1191.25
-1191.38
-1198.65
-1206.35
-1209.5
-1207.01
-1202.56
-1200.24
-1200.13
5.08112
2.29809
2.57248
2.54574
2.57263
2.69861
2.87033
3.06951
3.3009
3.77916
4.77462
6.75056
10.2521
15.3649
21.5646
28.719
35.7951
39.8923
38.6081
29.2945
8.53081
-27.9092
-81.7377
-159.369
-255.721
-365.385
-475.497
-584.378
-691.373
-792.736
-884.267
-962.897
-1027.49
-1078.64
-1118
-1147.65
-1169.81
-1186.51
-1199.51
-1209.92
-1214.29
-1214.56
-1218.69
-1215.72
-1207.85
-1197.24
-1187.11
-1180.41
5.12142
2.31359
2.58429
2.54904
2.56301
2.67309
2.82275
2.99343
3.1844
3.60049
4.50265
6.31909
9.55937
14.2575
19.8575
26.1578
32.0068
34.5437
31.3738
19.8756
-3.2441
-41.9354
-97.7414
-176.44
-272.667
-380.345
-487.379
-592.907
-697.138
-796.839
-887.876
-966.897
-1032.34
-1084.39
-1124.43
-1154.35
-1176.15
-1191.45
-1201.42
-1205.32
-1215.73
-1221.37
-1221.65
-1221.17
-1220.19
-1220.06
-1217.06
-1207.49
5.16083
2.32887
2.59569
2.55172
2.55288
2.64692
2.77425
2.9157
3.065
3.41646
4.21984
5.86712
8.8288
13.0841
18.0401
23.4239
27.9693
28.8623
23.7214
9.9707
-15.5399
-56.4861
-114.22
-193.919
-289.918
-395.554
-499.415
-601.443
-702.707
-800.538
-890.925
-970.271
-1036.58
-1089.62
-1130.49
-1161.02
-1183.53
-1200.37
-1213.57
-1222.94
-1223.92
-1227.79
-1230.91
-1227.99
-1219.82
-1215.12
-1202.28
-1192.23
5.19928
2.34416
2.60704
2.55457
2.54298
2.62075
2.72567
2.83724
2.94379
3.22837
3.9281
5.39699
8.0644
11.8506
16.1221
20.5326
23.7062
22.882
15.6985
-0.356986
-28.2772
-71.4657
-131.066
-211.687
-307.351
-410.887
-511.494
-609.886
-707.995
-803.747
-893.322
-972.931
-1040.18
-1094.38
-1136.17
-1166.93
-1188.38
-1202.21
-1209.87
-1217.78
-1231.05
-1236.3
-1234.75
-1230.75
-1228.58
-1222.94
-1217.79
-1215.34
5.23674
2.35924
2.61795
2.55681
2.53258
2.59396
2.67628
2.75737
2.82017
3.03581
3.62721
4.90948
7.2678
10.5609
14.1113
17.4969
19.2398
16.6362
7.35324
-11.0423
-41.3744
-86.7739
-148.166
-229.615
-324.831
-426.206
-523.482
-618.117
-712.89
-806.356
-894.943
-974.743
-1043
-1098.64
-1141.96
-1174.1
-1196.55
-1210.89
-1218.43
-1235.57
-1253.36
-1261.48
-1265.48
-1248.36
-1233.73
-1224.89
-1218.99
-1211.16
5.27314
2.37432
2.62877
2.55924
2.52243
2.56724
2.62694
2.67704
2.69526
2.84015
3.31929
4.40742
6.44407
9.22308
12.0206
14.3377
14.6013
10.1694
-1.2536
-22.007
-54.7364
-102.301
-165.4
-247.575
-342.229
-441.377
-535.259
-626.035
-717.304
-808.272
-895.678
-975.556
-1044.86
-1102.17
-1147.58
-1182.25
-1207.87
-1226.29
-1239.13
-1249.59
-1262.11
-1273.85
-1280.6
-1282.74
-1277.86
-1268.26
-1256.48
-1247.51
5.30844
2.38919
2.63913
2.56106
2.51178
2.53996
2.57689
2.59557
2.56849
2.64111
3.00434
3.89204
5.59572
7.84268
9.86086
11.0729
9.82043
3.52501
-10.0616
-33.1731
-68.2688
-117.937
-182.646
-265.435
-359.406
-456.26
-546.692
-633.516
-721.124
-809.384
-895.392
-975.193
-1045.47
-1104.45
-1151.91
-1188.88
-1217
-1238.28
-1254.65
-1267.33
-1281.46
-1291.03
-1284.87
-1273.63
-1264.19
-1257.11
-1244.71
-1239.34
5.34256
2.404
2.6494
2.56307
2.50142
2.51281
2.52703
2.51395
2.44104
2.44013
2.68468
3.36657
4.72864
6.42937
7.64777
7.72764
4.93443
-3.24442
-19.0009
-44.4527
-81.8673
-133.563
-199.78
-283.063
-376.234
-470.726
-557.661
-640.466
-724.271
-809.607
-893.981
-973.502
-1044.62
-1105.16
-1154.49
-1193.16
-1222.24
-1243.06
-1256.89
-1265.02
-1273.73
-1275.54
-1276.1
-1279.99
-1284.43
-1276.79
-1272.04
-1272.83
5.37548
2.41853
2.65921
2.5645
2.49057
2.48518
2.47661
2.4315
2.31235
2.237
2.36045
2.83256
3.84597
4.98985
5.39408
4.3235
-0.0222396
-10.0892
-28.004
-55.7608
-95.431
-149.065
-216.676
-300.328
-392.575
-484.639
-568.041
-646.764
-726.638
-808.844
-891.332
-970.339
-1042.13
-1104.13
-1155.35
-1196.02
-1227.05
-1249.74
-1265.35
-1274.87
-1279.09
-1280.39
-1289.81
-1290.76
-1292.78
-1289.65
-1290.19
-1294.53
5.40721
2.43294
2.66891
2.5661
2.48005
2.45776
2.42652
2.34921
2.18363
2.03319
2.03405
2.29347
2.95407
3.53474
3.11719
0.88781
-5.00919
-16.9533
-36.9975
-67.0061
-108.854
-164.326
-233.211
-317.104
-408.31
-497.878
-577.72
-652.328
-728.163
-807.037
-887.376
-965.604
-1037.84
-1101.18
-1154.27
-1197.18
-1230.83
-1256.67
-1276.18
-1290.72
-1300.67
-1310.01
-1315.41
-1327.53
-1332.37
-1312.8
-1309.63
-1297.3
5.43769
2.44705
2.67815
2.56714
2.46906
2.42992
2.37603
2.26645
2.05435
1.82855
1.70566
1.75098
2.05632
2.07122
0.83051
-2.55658
-9.99065
-23.7855
-45.9129
-78.1046
-122.038
-179.234
-249.267
-333.269
-423.312
-510.322
-586.591
-657.055
-728.763
-804.119
-882.043
-959.209
-1031.64
-1096.08
-1150.75
-1195.27
-1230.28
-1257.12
-1277.44
-1292.75
-1303.55
-1311.13
-1317.36
-1312.63
-1305.4
-1299.66
-1300.68
-1307.41
5.4668
2.46112
2.68722
2.56836
2.45841
2.40237
2.32602
2.18416
1.92566
1.62449
1.3777
1.20854
1.15905
0.609865
-1.44868
-5.98279
-14.9275
-30.5321
-54.6813
-88.9719
-134.886
-193.689
-264.739
-348.717
-437.483
-521.875
-594.564
-660.896
-728.409
-800.073
-875.32
-951.128
-1023.49
-1088.88
-1145.09
-1191.31
-1227.81
-1255.41
-1275.07
-1287.69
-1296.72
-1301.69
-1315.94
-1329.08
-1331.1
-1318.08
-1307.57
-1294.24
5.49444
2.47491
2.6958
2.56904
2.44732
2.37449
2.27575
2.1017
1.79703
1.4208
1.05017
0.667509
0.265126
-0.842992
-3.70855
-9.37051
-19.7882
-37.1486
-63.2439
-99.5376
-147.319
-207.599
-279.533
-363.355
-450.732
-532.455
-601.574
-663.784
-727.059
-794.879
-867.191
-941.338
-1013.37
-1079.49
-1137.13
-1185.13
-1223.55
-1253.19
-1275.35
-1291.38
-1302.72
-1311.16
-1322.8
-1333.26
-1317.72
-1321.2
-1319.34
-1298.36
5.52052
2.48866
2.70417
2.5699
2.4366
2.34696
2.22606
2.01997
1.66951
1.21874
0.72525
0.130954
-0.619835
-2.2781
-5.93403
-12.6968
-24.54
-43.5908
-71.5455
-109.735
-159.262
-220.891
-293.576
-377.115
-462.999
-542.007
-607.576
-665.712
-724.727
-788.569
-857.698
-929.871
-1001.26
-1067.91
-1126.9
-1176.71
-1217.07
-1248.58
-1272.24
-1289.35
-1301.35
-1309.35
-1325.42
-1329.05
-1316.83
-1295.48
-1284.09
-1288.66
5.54498
2.50219
2.71203
2.57024
2.42546
2.31915
2.17623
1.93831
1.54252
1.01801
0.402717
-0.400204
-1.49383
-3.69062
-8.11616
-15.9458
-29.1587
-49.825
-79.542
-119.514
-170.659
-233.503
-306.806
-389.939
-474.232
-550.486
-612.538
-666.64
-721.395
-781.145
-846.851
-916.733
-987.158
-1054.05
-1114.19
-1165.62
-1207.74
-1240.88
-1265.88
-1283.84
-1295.97
-1299.7
-1320.69
-1329.98
-1321.83
-1312.6
-1317.84
-1315.04
5.56777
2.51572
2.71963
2.57076
2.41473
2.29176
2.12711
1.85766
1.41715
0.819922
0.0848476
-0.922856
-2.35132
-5.07176
-10.2409
-19.0969
-33.6154
-55.8129
-87.1865
-128.817
-181.448
-245.373
-319.164
-401.768
-484.379
-557.846
-616.418
-666.567
-717.077
-772.639
-834.699
-901.969
-971.085
-1037.95
-1099.01
-1151.98
-1195.87
-1230.84
-1257.78
-1278.17
-1293.18
-1304.49
-1313.68
-1328.61
-1344.18
-1330.52
-1321.07
-1310.9
5.58876
2.52907
2.72671
2.57079
2.40359
2.26419
2.07798
1.77736
1.29287
0.624264
-0.228486
-1.43588
-3.18997
-6.41612
-12.2986
-22.1333
-37.8849
-61.5191
-94.4326
-137.59
-191.567
-256.429
-330.573
-412.533
-493.376
-564.036
-619.185
-665.453
-711.764
-763.078
-821.294
-885.647
-953.111
-1019.62
-1081.45
-1135.89
-1181.6
-1218.36
-1246.89
-1268.21
-1283.55
-1298.66
-1309.77
-1314.37
-1321.76
-1322.8
-1327.27
-1329.73
5.60795
2.54236
2.73351
2.57099
2.39291
2.23711
2.02969
1.69834
1.17073
0.432241
-0.535146
-1.93646
-4.00487
-7.71608
-14.2773
-25.0377
-41.9436
-66.9128
-101.243
-145.789
-200.966
-266.625
-340.987
-422.187
-501.185
-569.027
-620.819
-663.323
-705.502
-752.537
-806.744
-867.888
-933.334
-999.174
-1061.49
-1117.3
-1164.75
-1203.2
-1232.86
-1254.6
-1269.46
-1278.08
-1279.41
-1273.38
-1288.16
-1300.7
-1307.22
-1306.47
5.62516
2.55538
2.73981
2.57074
2.38184
2.20992
1.98151
1.61993
1.05013
0.243552
-0.835546
-2.42401
-4.79466
-8.96805
-16.1708
-27.7991
-45.7749
-71.9711
-107.588
-153.379
-209.607
-275.914
-350.361
-430.693
-507.776
-572.803
-621.321
-660.169
-698.314
-741.074
-791.137
-848.801
-911.872
-976.64
-1039.2
-1096.25
-1145.64
-1186.4
-1218.55
-1242.82
-1260.25
-1272.17
-1278.78
-1290.36
-1303.82
-1295.21
-1299.59
-1294.01
5.64041
2.56832
2.74581
2.57066
2.37126
2.1833
1.93429
1.54304
0.932101
0.0593486
-1.12761
-2.89595
-5.55503
-10.1658
-17.9694
-30.4041
-49.3617
-76.6724
-113.443
-160.329
-217.457
-284.27
-358.669
-438.025
-513.136
-575.36
-620.699
-656.04
-690.268
-728.789
-774.617
-828.557
-888.883
-952.196
-1014.6
-1072.67
-1123.86
-1166.77
-1200.95
-1226.7
-1244.74
-1256.1
-1262.16
-1270.14
-1288.61
-1294.25
-1295.38
-1298.36
5.65351
2.58098
2.7513
2.57017
2.36033
2.15664
1.88729
1.46699
0.816014
-0.120762
-1.41199
-3.35217
-6.28547
-11.3071
-19.6698
-32.8463
-52.6945
-81.0037
-118.79
-166.624
-224.497
-291.667
-365.886
-444.171
-517.258
-576.708
-618.977
-650.95
-681.404
-715.759
-757.296
-807.305
-864.542
-925.941
-987.8
-1046.53
-1099.41
-1144.74
-1181.93
-1211.15
-1233.04
-1248.39
-1257.85
-1267.16
-1290.88
-1304.74
-1310.51
-1298.66
5.66447
2.59352
2.75643
2.56986
2.34993
2.13061
1.84137
1.39267
0.702866
-0.295708
-1.68674
-3.79039
-6.9824
-12.3874
-21.2648
-35.117
-55.7633
-84.9535
-123.618
-172.248
-230.713
-298.096
-372.009
-449.128
-520.153
-576.867
-616.184
-644.968
-671.807
-702.101
-739.338
-785.251
-839.066
-898.134
-958.904
-1017.88
-1072.02
-1119.4
-1159.11
-1191.27
-1216.69
-1236.74
-1252.93
-1266
-1276.02
-1300.57
-1319.41
-1310.33
5.67308
2.6056