/*--------------------------------*- C++ -*----------------------------------*\
  =========                 |
  \\      /  F ield         | OpenFOAM: The Open Source CFD Toolbox
   \\    /   O peration     | Website:  https://openfoam.org
    \\  /    A nd           | Version:  10
     \\/     M anipulation  |
\*---------------------------------------------------------------------------*/
FoamFile
{
    format      ascii;
    class       surfaceScalarField;
    location    "10";
    object      phi;
}
// * * * * * * * * * * * * * * * * * * * * * * * * * * * * * * * * * * * * * //

dimensions      [0 3 -1 0 0 0 0];

internalField   nonuniform List<scalar> 
75600
(
2.1673
-1217.85
1218.3
1.79943
-1008.25
1008.62
1.49495
-834.775
835.08
1.24302
-691.174
691.425
1.03489
-572.31
572.517
0.862655
-473.933
474.105
0.720045
-392.521
392.663
0.601966
-325.161
325.279
0.504182
-269.44
269.538
0.423336
-223.365
223.445
0.356188
-185.284
185.351
0.300185
-153.833
153.889
0.253672
-127.889
127.936
0.215662
-106.521
106.559
0.183726
-88.9745
89.0063
0.156759
-74.6002
74.6272
0.133796
-62.894
62.9168
0.114923
-53.4344
53.4534
0.0987359
-45.8967
45.9128
0.0850534
-39.9881
40.0017
0.0732055
-35.4989
35.5108
0.0624104
-32.2784
32.2901
0.0523823
-30.2258
30.2353
0.0433216
-29.2829
29.2931
0.0339469
-29.3241
29.3329
0.0274316
-23.5493
23.557
0.0220961
-18.8792
18.8833
0.0174157
-15.1651
15.1697
0.0136784
-12.1573
12.1609
0.0108615
-9.74992
9.75265
0.00877312
-7.80263
7.80471
0.00760985
-6.22257
6.22374
0.00616401
-5.00803
5.00946
0.0049763
-4.00497
4.00615
0.0038799
-3.20596
3.20705
0.00374599
-2.59964
2.59977
0.00379925
-2.07957
2.07952
0.00332994
-1.65416
1.65464
0.00354001
-1.33542
1.33522
0.00344402
-1.07385
1.07395
0.00233794
-0.861337
0.862439
0.0020012
-0.702729
0.703062
0.00037602
-0.583044
0.584672
0.000437797
-0.497478
0.497418
0.00182784
-0.42312
0.421736
0.00199183
-0.360719
0.360557
0.00111481
-0.334044
0.334925
-0.315438
0.31609
0.000462268
2.19482
-1217.4
1.82255
-1007.88
1.51443
-834.467
1.25946
-690.918
1.0484
-572.098
0.873709
-473.758
0.729091
-392.376
0.609323
-325.041
0.510118
-269.341
0.427984
-223.282
0.359843
-185.215
0.303455
-153.776
0.256731
-127.842
0.217826
-106.482
0.184853
-88.9414
0.157944
-74.5732
0.135561
-62.8716
0.116083
-53.4149
0.0999205
-45.8805
0.0861272
-39.9743
0.07346
-35.4862
0.0632992
-32.2679
0.0538048
-30.2166
0.0453319
-29.2742
0.0366215
-29.3163
0.0303351
-23.5427
0.024874
-18.8749
0.0204952
-15.1608
0.0167838
-12.1537
0.014279
-9.74746
0.012829
-7.80122
0.0114896
-6.22125
0.0101904
-5.00675
0.00938141
-4.00417
0.00968508
-3.20626
0.00761824
-2.59758
0.00813031
-2.08009
0.00774131
-1.65377
0.00726819
-1.33495
0.00742054
-1.07401
0.00550301
-0.859422
0.00593974
-0.703167
0.0036735
-0.580777
0.00455935
-0.498362
0.00522112
-0.423781
0.00517702
-0.360674
0.00378908
-0.332655
-0.318372
0.00672355
2.22419
-1216.95
1.84692
-1007.5
1.53444
-834.154
1.27566
-690.66
1.06143
-571.884
0.883973
-473.581
0.737007
-392.229
0.615251
-324.919
0.514381
-269.24
0.430854
-223.199
0.361505
-185.146
0.303807
-153.719
0.256129
-127.795
0.216765
-106.443
0.183919
-88.9087
0.156751
-74.5461
0.13375
-62.8487
0.114229
-53.3954
0.097505
-45.8638
0.0831905
-39.96
0.0719967
-35.475
0.0623477
-32.258
0.0529497
-30.2079
0.0449498
-29.2661
0.0367001
-29.3088
0.030843
-23.5364
0.0259817
-18.8708
0.0221773
-15.157
0.0188556
-12.1503
0.0162811
-9.74494
0.015212
-7.80015
0.0139972
-6.22007
0.0129542
-5.00573
0.0121302
-4.00334
0.0112865
-3.20541
0.0103611
-2.59665
0.0104758
-2.08022
0.0103065
-1.65361
0.00981628
-1.33447
0.0098751
-1.07408
0.00851707
-0.858069
0.00846703
-0.703122
0.00550332
-0.577813
0.00609496
-0.498953
0.00552615
-0.423212
0.00753919
-0.362687
0.00487333
-0.329989
-0.321463
0.0079658
2.25551
-1216.49
1.87284
-1007.12
1.55568
-833.837
1.29279
-690.396
1.07518
-571.666
0.894851
-473.401
0.745402
-392.08
0.621558
-324.795
0.51893
-269.137
0.433784
-223.114
0.363371
-185.076
0.305189
-153.66
0.256378
-127.746
0.216253
-106.403
0.183072
-88.8754
0.155122
-74.5181
0.131565
-62.8252
0.112234
-53.3761
0.096175
-45.8478
0.0825029
-39.9464
0.0704401
-35.4629
0.0602307
-32.2475
0.05076
-30.1991
0.0441867
-29.2594
0.0364061
-29.3017
0.0313838
-23.5309
0.0269906
-18.8668
0.0232793
-15.1535
0.0192809
-12.1464
0.015911
-9.74163
0.0157738
-7.80004
0.015127
-6.21947
0.0143301
-5.00498
0.0138159
-4.00283
0.0166775
-3.20826
0.0106457
-2.59062
0.0085583
-2.07815
0.0103716
-1.65544
0.0125558
-1.33666
0.00942132
-1.07096
0.010103
-0.858756
0.00892063
-0.70194
0.00658864
-0.575481
0.00616703
-0.49853
0.00321656
-0.420261
0.00650606
-0.365975
0.00499707
-0.328479
-0.320047
0.0035834
2.28896
-1216.02
1.90051
-1006.73
1.57844
-833.516
1.31145
-690.13
1.09015
-571.445
0.906786
-473.217
0.75479
-391.928
0.628808
-324.67
0.524392
-269.033
0.438005
-223.027
0.36608
-185.004
0.30656
-153.601
0.257601
-127.697
0.216736
-106.362
0.182132
-88.8409
0.153651
-74.4897
0.130082
-62.8018
0.110583
-53.3566
0.0943685
-45.8317
0.0806803
-39.9327
0.0682164
-35.4505
0.058943
-32.2379
0.0501219
-30.1906
0.0432696
-29.2522
0.0357539
-29.2947
0.0311304
-23.5259
0.0258261
-18.8625
0.0226027
-15.1503
0.0199583
-12.1438
0.0177467
-9.73943
0.0165267
-7.79881
0.0158484
-6.21882
0.0148118
-5.00397
0.0149257
-4.00295
0.0170422
-3.21035
0.0142146
-2.58779
0.0112708
-2.07521
0.00986295
-1.65404
0.0129442
-1.33975
0.00961214
-1.06762
0.00957834
-0.858725
0.0072223
-0.699586
0.00568443
-0.573943
0.00373543
-0.496581
0.00447759
-0.421002
0.00501754
-0.366514
0.0095638
-0.333024
-0.313059
0.00257781
2.32493
-1215.54
1.93036
-1006.34
1.60316
-833.188
1.33169
-689.858
1.10677
-571.22
0.920302
-473.031
0.765705
-391.773
0.637545
-324.541
0.531311
-268.927
0.443203
-222.939
0.370294
-184.931
0.309727
-153.54
0.25951
-127.647
0.218267
-106.32
0.183606
-88.8061
0.154962
-74.461
0.130494
-62.7773
0.110096
-53.3362
0.0937723
-45.8153
0.0795951
-39.9186
0.0680427
-35.439
0.0587849
-32.2285
0.0491158
-30.1812
0.0431662
-29.2461
0.0357825
-29.2879
0.0308655
-23.5207
0.0266555
-18.8589
0.0237924
-15.1475
0.0207708
-12.1408
0.0184114
-9.73712
0.0178111
-7.79822
0.0180113
-6.21906
0.0165954
-5.00259
0.0165538
-4.00293
0.0172123
-3.21101
0.0144068
-2.58499
0.0129106
-2.07372
0.0126625
-1.6538
0.0111477
-1.33824
0.0117847
-1.06826
0.00953693
-0.85648
0.00558496
-0.695634
0.00536712
-0.573725
0.00192041
-0.493133
0.0042552
-0.423335
0.00271225
-0.36497
0.00371598
-0.334026
-0.315165
0.00582201
2.36326
-1215.06
1.96239
-1005.94
1.6296
-832.855
1.35353
-689.582
1.12471
-570.992
0.934992
-472.841
0.777665
-391.616
0.647226
-324.411
0.539092
-268.819
0.449582
-222.85
0.375336
-184.857
0.313769
-153.479
0.26247
-127.596
0.219999
-106.278
0.18438
-88.7706
0.15519
-74.4318
0.131261
-62.7535
0.111339
-53.3163
0.0942423
-45.7982
0.0804498
-39.9048
0.0684643
-35.427
0.0588654
-32.2188
0.050115
-30.1726
0.0433417
-29.2392
0.0362085
-29.2811
0.0320094
-23.5161
0.028358
-18.8554
0.0248889
-15.1441
0.0217708
-12.1378
0.0181154
-9.73351
0.0178999
-7.79798
0.0177986
-6.21897
0.0167485
-5.00157
0.0177624
-4.00396
0.0168218
-3.21005
0.0143609
-2.58252
0.0142689
-2.07362
0.0109366
-1.65046
0.00891303
-1.33622
0.0116433
-1.071
0.0092703
-0.854108
0.00501722
-0.691381
0.0052932
-0.574
0.00484671
-0.492685
0.00070257
-0.419191
0.00238193
-0.366647
0.00117563
-0.332819
-0.314912
0.000925133
2.4043
-1214.57
1.99637
-1005.53
1.65778
-832.516
1.37685
-689.301
1.14402
-570.758
0.950867
-472.648
0.790671
-391.456
0.65784
-324.278
0.547714
-268.708
0.456413
-222.758
0.380659
-184.781
0.318051
-153.416
0.265704
-127.543
0.22224
-106.235
0.186685
-88.7349
0.157549
-74.4027
0.132969
-62.7289
0.111624
-53.295
0.0939798
-45.7805
0.0803928
-39.8913
0.0687978
-35.4154
0.0591982
-32.2091
0.050421
-30.164
0.043785
-29.2325
0.0358137
-29.2736
0.0321003
-23.5122
0.0288933
-18.8524
0.0242999
-15.1396
0.020235
-12.1339
0.0141957
-9.72753
0.0162207
-7.80001
0.0196877
-6.22248
0.0184253
-5.00036
0.0190229
-4.00458
0.0161671
-3.2072
0.0140613
-2.58041
0.0145361
-2.07408
0.0122844
-1.64821
0.0120675
-1.336
0.0105494
-1.06948
0.00892769
-0.852489
0.00808356
-0.690537
0.00788076
-0.573798
0.00582586
-0.490629
-9.85002e-05
-0.413267
0.00054325
-0.367286
0.000730836
-0.333007
-0.314106
-7.34041e-05
2.44789
-1214.07
2.03272
-1005.11
1.68809
-832.172
1.40206
-689.015
1.16477
-570.521
0.967995
-472.451
0.804792
-391.293
0.669455
-324.143
0.557245
-268.596
0.464146
-222.665
0.386924
-184.704
0.323121
-153.352
0.270292
-127.49
0.226405
-106.191
0.189587
-88.6982
0.15948
-74.3726
0.134586
-62.7041
0.113628
-53.2741
0.096115
-45.7631
0.0813268
-39.8765
0.0690369
-35.403
0.0596158
-32.1995
0.0502146
-30.1549
0.0442762
-29.2265
0.0374562
-29.2672
0.0328125
-23.5074
0.0268333
-18.8467
0.0249603
-15.1379
0.023215
-12.1321
0.0209538
-9.72528
0.0165308
-7.79558
0.0145434
-6.22049
0.0153459
-5.00119
0.0195131
-4.00878
0.0167746
-3.20445
0.011153
-2.57479
0.0155855
-2.07851
0.00981132
-1.64244
0.0106457
-1.33684
0.0107207
-1.06956
0.0099795
-0.851749
0.0111872
-0.691745
0.00875992
-0.571371
0.00254001
-0.484412
0.00332958
-0.414054
0.00386343
-0.367821
-0.000387863
-0.328753
-0.316917
0.00242958
2.49433
-1213.56
2.07142
-1004.69
1.72024
-831.82
1.42868
-688.723
1.18697
-570.279
0.986472
-472.251
0.820122
-391.126
0.682173
-324.005
0.567789
-268.482
0.473037
-222.57
0.394476
-184.625
0.329107
-153.287
0.274812
-127.436
0.230094
-106.146
0.192464
-88.6606
0.162048
-74.3421
0.136821
-62.6788
0.115509
-53.2527
0.0972045
-45.7448
0.0818802
-39.8612
0.0695525
-35.3907
0.0599672
-32.1898
0.0502749
-30.1454
0.0448603
-29.2209
0.0374781
-29.2602
0.033693
-23.5036
0.0300483
-18.8434
0.0274133
-15.1353
0.0241094
-12.1289
0.019712
-9.72092
0.021747
-7.79762
0.0221865
-6.22095
0.0159145
-4.99496
0.0162878
-4.00918
0.0184501
-3.20662
0.015893
-2.57224
0.0165504
-2.07917
0.0119951
-1.63789
0.0114222
-1.33628
0.00794448
-1.06609
0.00786958
-0.851675
0.00737957
-0.691257
0.00570366
-0.569697
0.00447537
-0.483183
0.00316762
-0.412747
-0.000709838
-0.36394
0.00122942
-0.330682
-0.3176
0.00192103
2.54376
-1213.04
2.11252
-1004.26
1.75464
-831.463
1.4575
-688.426
1.21094
-570.033
1.00639
-472.046
0.836757
-390.957
0.696085
-323.864
0.579446
-268.365
0.4827
-222.474
0.402371
-184.545
0.335589
-153.22
0.280146
-127.381
0.234602
-106.101
0.196998
-88.6231
0.166176
-74.3114
0.140213
-62.6529
0.117614
-53.2302
0.0996334
-45.7269
0.085462
-39.847
0.0729605
-35.3782
0.0629423
-32.1797
0.0521127
-30.1346
0.0460287
-29.2147
0.0401605
-29.2543
0.0331485
-23.4966
0.0280837
-18.8386
0.0269941
-15.1343
0.0250104
-12.1269
0.0218969
-9.7178
0.0196913
-7.79541
0.0186432
-6.21992
0.0201496
-4.99644
0.0170389
-4.00607
0.0179217
-3.20751
0.0151254
-2.56945
0.016711
-2.08078
0.0103518
-1.63154
0.0130312
-1.33896
0.0102333
-1.06329
0.00810396
-0.849548
0.00752174
-0.690675
0.00650939
-0.568686
0.00607606
-0.48275
0.00670306
-0.413374
-9.08842e-05
-0.357145
0.00588714
-0.33666
-0.311914
0.000201631
2.59605
-1212.51
2.15643
-1003.82
1.79117
-831.097
1.48802
-688.123
1.23653
-569.781
1.02784
-471.837
0.854797
-390.783
0.711301
-323.72
0.592322
-268.246
0.493479
-222.375
0.411731
-184.463
0.344239
-153.153
0.288036
-127.324
0.241514
-106.054
0.202575
-88.5841
0.170264
-74.279
0.14293
-62.6255
0.121198
-53.2084
0.103684
-45.7094
0.0882952
-39.8316
0.0754813
-35.3654
0.0653128
-32.1695
0.0559058
-30.1252
0.0481377
-29.207
0.0412183
-29.2475
0.0355102
-23.4909
0.0309331
-18.8341
0.0273308
-15.1308
0.0261095
-12.1258
0.0193067
-9.71103
0.0204202
-7.79655
0.0230686
-6.22258
0.0232429
-4.99663
0.0195946
-4.00243
0.0179637
-3.20589
0.013133
-2.56465
0.0131829
-2.08085
0.0128731
-1.63124
0.0121193
-1.33821
0.00601066
-1.05719
0.0060448
-0.849584
0.00865126
-0.693283
0.00779618
-0.567832
0.00667038
-0.481623
0.00231874
-0.409022
-0.00240345
-0.352421
-0.00155504
-0.337507
-0.316712
0.00324264
2.65174
-1211.97
2.20282
-1003.37
1.83004
-830.725
1.52061
-687.814
1.26392
-569.525
1.05094
-471.625
0.874353
-390.607
0.727934
-323.574
0.606541
-268.125
0.505968
-222.274
0.422564
-184.38
0.3534
-153.084
0.295975
-127.267
0.248419
-106.006
0.208745
-88.5445
0.17621
-74.2465
0.149341
-62.5988
0.126275
-53.1854
0.10743
-45.6906
0.0916921
-39.8159
0.0785832
-35.3522
0.0684151
-32.1593
0.0586529
-30.1155
0.0506093
-29.199
0.0431223
-29.24
0.036768
-23.4845
0.0323219
-18.8297
0.0281787
-15.1267
0.026516
-12.1242
0.0192134
-9.70373
0.019414
-7.79674
0.0172424
-6.22042
0.019522
-4.99892
0.0204773
-4.00339
0.0161317
-3.20155
0.0161649
-2.5647
0.014318
-2.07901
0.0113975
-1.62833
0.0124513
-1.33927
0.00747321
-1.05221
0.00938454
-0.851496
0.0109253
-0.694827
0.0108693
-0.567776
0.0102162
-0.480971
0.00680761
-0.405612
0.00790035
-0.353513
-0.00186305
-0.327742
-0.316212
-0.00235466
2.71056
-1211.42
2.25215
-1002.91
1.87134
-830.344
1.55535
-687.497
1.29324
-569.263
1.07581
-471.407
0.895553
-390.427
0.746114
-323.425
0.622237
-268.001
0.519471
-222.172
0.434367
-184.294
0.363909
-153.013
0.305369
-127.208
0.256978
-105.958
0.216661
-88.5041
0.18322
-74.213
0.155463
-62.571
0.131984
-53.1619
0.112212
-45.6708
0.0965076
-39.8002
0.08355
-35.3392
0.0723305
-32.1481
0.0616449
-30.1048
0.0530708
-29.1905
0.0446288
-29.2317
0.0392994
-23.4792
0.0357488
-18.8265
0.0294724
-15.1205
0.0268106
-12.1216
0.0213617
-9.69833
0.0202604
-7.79566
0.0238519
-6.22403
0.023863
-4.99895
0.0206592
-4.0002
0.0213896
-3.2023
0.0192133
-2.56253
0.0121768
-2.07198
0.00685476
-1.62302
0.0157078
-1.34813
0.00597185
-1.04248
0.0067203
-0.852247
0.00884418
-0.696948
0.0169832
-0.575916
0.00825897
-0.472244
0.00605942
-0.403409
0.00915445
-0.356604
0.00899537
-0.32758
-0.315294
0.00807792
2.77298
-1210.85
2.30432
-1002.44
1.91528
-829.955
1.59236
-687.175
1.32463
-568.995
1.10258
-471.185
0.918535
-390.243
0.765996
-323.272
0.639571
-267.875
0.534544
-222.067
0.447627
-184.208
0.375942
-152.941
0.316025
-127.149
0.266612
-105.909
0.225669
-88.4632
0.191503
-74.1789
0.163271
-62.5428
0.13877
-53.1374
0.11816
-45.6503
0.102352
-39.7843
0.087866
-35.3247
0.0768534
-32.137
0.0656239
-30.0936
0.0566616
-29.1816
0.0457916
-29.2209
0.0345016
-23.4678
0.0337856
-18.8259
0.0315077
-15.1182
0.0278702
-12.118
0.0253699
-9.69584
0.0191349
-7.78941
0.0219413
-6.22683
0.024789
-5.00186
0.0157178
-3.99114
0.0178107
-3.20444
0.0187002
-2.56342
0.0196456
-2.07293
0.00725753
-1.61063
0.00363346
-1.34451
0.010729
-1.04957
0.0194876
-0.861006
0.0146789
-0.69214
0.0165781
-0.57781
0.012784
-0.468449
0.0110722
-0.401691
0.010636
-0.356169
0.00582503
-0.322775
-0.311113
0.00163617
2.83897
-1210.28
2.35964
-1001.96
1.96176
-829.556
1.63179
-686.844
1.35817
-568.721
1.13135
-470.958
0.943414
-390.055
0.787694
-323.116
0.658663
-267.745
0.551804
-221.96
0.46317
-184.119
0.389674
-152.868
0.328167
-127.087
0.277695
-105.858
0.23627
-88.4218
0.201291
-74.1439
0.172313
-62.5138
0.148258
-53.1133
0.126419
-45.6284
0.109245
-39.7672
0.0960966
-35.3116
0.0837377
-32.1247
0.0715869
-30.0815
0.0600285
-29.1701
0.0496193
-29.2106
0.0435978
-23.4619
0.0389823
-18.8216
0.0345739
-15.1139
0.0299975
-12.1134
0.0275023
-9.69339
0.0242494
-7.78617
0.0196123
-6.22223
0.0196172
-5.00193
0.0111984
-3.98274
0.0115868
-3.20487
0.0208065
-2.57266
0.0166875
-2.06881
0.0185242
-1.61247
0.00176742
-1.32775
0.00842246
-1.05623
0.0144261
-0.86701
0.013346
-0.691059
0.0118189
-0.576281
0.0139403
-0.470566
0.0174072
-0.405154
0.0180554
-0.356814
0.018214
-0.322934
-0.308364
0.0154645
2.90871
-1209.69
2.41839
-1001.47
2.01126
-829.15
1.67369
-686.507
1.39403
-568.442
1.16228
-470.727
0.970353
-389.863
0.811383
-322.957
0.6797
-267.614
0.57065
-221.851
0.48023
-184.029
0.405268
-152.793
0.34314
-127.025
0.291597
-105.807
0.24837
-88.3786
0.212468
-74.1081
0.183002
-62.4844
0.158574
-53.089
0.137546
-45.6074
0.119618
-39.7492
0.104251
-35.2962
0.0912043
-32.1117
0.0789484
-30.0692
0.0676823
-29.1588
0.0565886
-29.1995
0.0428457
-23.4481
0.0355121
-18.8145
0.0361234
-15.1147
0.0310044
-12.1083
0.0288915
-9.69131
0.0112032
-7.76848
0.0190556
-6.23007
0.0199414
-5.00282
0.0239377
-3.98675
0.00729087
-3.18822
0.0193391
-2.58472
0.0163887
-2.06586
0.0198218
-1.6159
0.0108035
-1.31873
0.00583232
-1.05126
0.00251808
-0.863695
0.0136064
-0.702146
0.0119605
-0.574634
0.0151501
-0.47375
0.0141538
-0.404159
0.013534
-0.356188
0.0145532
-0.323951
-0.308009
0.0141972
2.98243
-1209.08
2.47994
-1000.97
2.06347
-828.733
1.71825
-686.162
1.43234
-568.156
1.19554
-470.489
0.999518
-389.667
0.837238
-322.795
0.702867
-267.479
0.591604
-221.739
0.499097
-183.936
0.422312
-152.716
0.359009
-126.962
0.306126
-105.754
0.262257
-88.3346
0.226325
-74.0721
0.196154
-62.4542
0.170774
-53.0635
0.148592
-45.5852
0.129937
-39.7305
0.114352
-35.2806
0.10042
-32.0977
0.0871814
-30.056
0.0739652
-29.1457
0.0609128
-29.1865
0.0508379
-23.4381
0.0350451
-18.7987
0.0321767
-15.112
0.028036
-12.1042
0.0257695
-9.68916
0.026212
-7.76894
0.0245627
-6.22846
0.0169039
-4.99518
0.0193464
-3.98921
0.025371
-3.19428
0.0187855
-2.57815
0.0130166
-2.0601
0.0133799
-1.61627
0.0137208
-1.31908
0.025323
-1.06286
0.00510712
-0.84348
0.00968817
-0.706724
0.00960551
-0.574552
0.0175949
-0.481733
0.0161902
-0.402759
0.0155421
-0.355535
0.0136254
-0.322034
-0.306624
0.0122409
3.06016
-1208.47
2.54578
-1000.46
2.1191
-828.307
1.7657
-685.809
1.47327
-567.863
1.23127
-470.248
1.03108
-389.467
0.865447
-322.63
0.728362
-267.342
0.614876
-221.626
0.520852
-183.842
0.44266
-152.638
0.377791
-126.897
0.324314
-105.7
0.278952
-88.2894
0.240728
-74.034
0.209451
-62.4231
0.18457
-53.0387
0.16255
-45.5632
0.143044
-39.711
0.125966
-35.2635
0.111109
-32.0829
0.0967672
-30.0418
0.0824676
-29.1314
0.0677932
-29.1718
0.0560266
-23.4264
0.0467128
-18.7895
0.0305026
-15.0959
0.0214695
-12.0952
0.0279685
-9.69566
0.0203353
-7.76131
0.0191245
-6.22726
0.0207148
-4.99677
0.0112219
-3.97973
0.00949415
-3.19256
0.00889041
-2.57757
0.00643378
-2.05765
0.010253
-1.62009
0.00776713
-1.31659
0.00942194
-1.06452
0.0234342
-0.857493
0.0222951
-0.705582
0.0201518
-0.572411
0.0144676
-0.476044
0.0186201
-0.406914
0.0150942
-0.352002
0.00973149
-0.31667
-0.30068
0.00379479
3.14234
-1207.83
2.61486
-999.927
2.17784
-827.869
1.8161
-685.446
1.51697
-567.564
1.26966
-470
1.06524
-389.262
0.89621
-322.46
0.756399
-267.202
0.640531
-221.51
0.544222
-183.746
0.464461
-152.558
0.398458
-126.831
0.343209
-105.645
0.298255
-88.2443
0.260962
-73.9966
0.228047
-62.3901
0.201104
-53.0117
0.178444
-45.5405
0.158021
-39.6906
0.139846
-35.2453
0.121514
-32.0645
0.104626
-30.025
0.0920555
-29.1189
0.0752359
-29.155
0.0613613
-23.4125
0.0475351
-18.7757
0.0390134
-15.0874
0.0346378
-12.0909
0.0308979
-9.69197
0.0285062
-7.75893
0.0238228
-6.22261
0.0141981
-4.98716
0.021935
-3.9875
0.0121844
-3.18284
0.00252375
-2.56793
0.0117346
-2.06687
0.0156896
-1.62405
0.0217084
-1.32262
0.00308401
-1.04589
0.00957034
-0.863978
0.00860719
-0.704616
0.00887695
-0.572683
0.0100833
-0.477251
0.0177742
-0.414605
0.0148886
-0.34912
0.0140082
-0.315779
-0.295967
0.00932262
3.22889
-1207.18
2.68789
-999.387
2.23999
-827.422
1.8696
-685.076
1.56361
-567.258
1.31089
-469.748
1.10218
-389.053
0.92974
-322.288
0.787202
-267.06
0.669152
-221.392
0.571532
-183.648
0.490748
-152.477
0.423621
-126.764
0.367846
-105.589
0.321172
-88.1978
0.282068
-73.9575
0.249063
-62.3571
0.2211
-52.9838
0.196802
-45.5163
0.175323
-39.6691
0.153228
-35.2232
0.13606
-32.0474
0.120693
-30.0096
0.103032
-29.1012
0.083661
-29.1356
0.0677425
-23.3966
0.0551992
-18.7632
0.0453085
-15.0775
0.0383857
-12.084
0.033031
-9.68661
0.0303517
-7.75625
0.0251456
-6.21741
0.0156035
-4.97762
0.0161652
-3.98809
0.0212576
-3.18794
-0.00136807
-2.54531
-0.00569453
-2.06255
0.0136885
-1.64344
0.0156677
-1.32459
0.0119881
-1.04221
0.00808469
-0.86007
-0.000563731
-0.69597
-0.00425342
-0.56899
-0.00478471
-0.476727
-0.00653228
-0.412868
-0.0024758
-0.353179
-0.00273873
-0.315544
-0.296796
-0.00192011
3.32017
-1206.51
2.76482
-998.831
2.30574
-826.962
1.92641
-684.697
1.6134
-566.945
1.35516
-469.489
1.14211
-388.84
0.966262
-322.112
0.821013
-266.915
0.700521
-221.271
0.601092
-183.549
0.519232
-152.395
0.450864
-126.695
0.393928
-105.532
0.346259
-88.15
0.306222
-73.9174
0.272308
-62.3232
0.243374
-52.9548
0.218036
-45.4909
0.19538
-39.6464
0.174664
-35.2025
0.155282
-32.028
0.135938
-29.9903
0.115695
-29.0811
0.0933823
-29.1134
0.0749127
-23.3782
0.0610252
-18.7494
0.0491309
-15.0657
0.0405989
-12.0755
0.0347436
-9.6808
0.0310587
-7.75259
0.0258982
-6.21228
0.0133396
-4.96508
0.00861527
-3.98339
0.0165735
-3.19593
0.0156548
-2.5444
-0.0124606
-2.03444
-0.0105834
-1.64533
-0.00233824
-1.33284
0.0143759
-1.05893
0.00763544
-0.853328
0.0050622
-0.693397
0.00483968
-0.568772
0.00362008
-0.475505
0.000683219
-0.409935
-0.00203666
-0.350468
0.000209738
-0.317737
-0.292945
-0.00358918
3.41623
-1205.82
2.84632
-998.262
2.37528
-826.492
1.98671
-684.309
1.6665
-566.625
1.40267
-469.226
1.18527
-388.623
1.00601
-321.933
0.858081
-266.767
0.73589
-221.149
0.634792
-183.448
0.551
-152.312
0.48141
-126.626
0.423397
-105.474
0.37473
-88.1015
0.33372
-73.8765
0.298814
-62.2883
0.268842
-52.9249
0.242348
-45.4645
0.218364
-39.6224
0.196202
-35.1803
0.174926
-32.0067
0.153288
-29.9686
0.13025
-29.058
0.104506
-29.0876
0.0831886
-23.3569
0.0669266
-18.7332
0.0533709
-15.0521
0.0437415
-12.0658
0.0368019
-9.67385
0.0322945
-7.74808
0.0273186
-6.20732
0.0259987
-4.96376
0.0189159
-3.97631
0.0150092
-3.19203
0.0172834
-2.54667
0.0212195
-2.03838
0.0218086
-1.64591
0.00068463
-1.31172
0.00543021
-1.06367
0.00477821
-0.852675
0.0021551
-0.690773
-0.00272369
-0.563889
-0.00943206
-0.468791
-0.0115177
-0.407853
-0.013513
-0.348471
-0.0165245
-0.314788
-0.29654
-0.0129814
3.51752
-1205.11
2.93207
-997.676
2.44878
-826.008
2.05069
-683.91
1.72313
-566.297
1.45363
-468.956
1.23187
-388.401
1.04923
-321.75
0.898668
-266.616
0.7744
-221.025
0.67162
-183.345
0.586433
-152.226
0.51565
-126.555
0.456567
-105.415
0.406892
-88.0517
0.364883
-73.8344
0.328941
-62.2523
0.297841
-52.8938
0.270073
-45.4366
0.244607
-39.597
0.220675
-35.1564
0.197263
-31.9834
0.173102
-29.9445
0.146813
-29.0318
0.117143
-29.0579
0.0925104
-23.3323
0.0736831
-18.7145
0.0580767
-15.0366
0.0469875
-12.0548
0.0389703
-9.66586
0.0335171
-7.74266
0.0284882
-6.20232
0.0272994
-4.96258
0.0246879
-3.97371
0.0179468
-3.1853
0.0151149
-2.54385
0.0104534
-2.03371
0.0211544
-1.65661
0.0154922
-1.30605
0.00856837
-1.05674
0.00939709
-0.853501
0.00800249
-0.689378
0.0156742
-0.571557
0.012866
-0.46598
0.000296361
-0.395276
0.00265975
-0.350832
-0.00475679
-0.307369
-0.293789
-0.00750722
3.62413
-1204.39
3.02246
-997.075
2.52646
-825.512
2.11856
-683.503
1.78349
-565.962
1.50827
-468.681
1.28215
-388.175
1.09618
-321.564
0.943042
-266.463
0.816755
-220.899
0.712359
-183.24
0.625834
-152.14
0.553893
-126.483
0.493759
-105.355
0.443071
-88.0011
0.400029
-73.7915
0.362985
-62.2154
0.330667
-52.8615
0.301495
-45.4075
0.27437
-39.5698
0.248477
-35.1305
0.222657
-31.9575
0.195592
-29.9174
0.165608
-29.0019
0.13145
-29.0238
0.10308
-23.304
0.081328
-18.6928
0.0634236
-15.0187
0.050662
-12.0421
0.0413512
-9.65653
0.0349014
-7.7362
0.0295317
-6.19696
0.0267043
-4.95976
0.0241106
-3.97112
0.0185697
-3.17976
0.0150202
-2.54029
0.0075673
-2.02626
0.0019978
-1.65102
0.00682375
-1.31087
0.00322226
-1.05314
0.00233734
-0.852611
0.00190625
-0.688943
0.00217801
-0.571822
0.00139762
-0.465202
-0.00415039
-0.389726
-0.00413091
-0.350851
0.00063127
-0.31213
-0.290968
-0.00218809
3.73635
-1203.64
3.11771
-996.455
2.60852
-825.003
2.19052
-683.084
1.84779
-565.619
1.56681
-468.4
1.33635
-387.944
1.14711
-321.375
0.991476
-266.307
0.863255
-220.77
0.757316
-183.134
0.669513
-152.052
0.59646
-126.41
0.535295
-105.294
0.483591
-87.9493
0.439484
-73.7473
0.401278
-62.1771
0.367641
-52.8278
0.336925
-45.3768
0.307955
-39.5409
0.279851
-35.1023
0.251298
-31.929
0.220952
-29.8871
0.186787
-28.9678
0.147544
-28.9845
0.114936
-23.2715
0.0898385
-18.6678
0.0693492
-14.9982
0.0546974
-12.0275
0.043945
-9.6458
0.0363817
-7.72866
0.0304455
-6.19106
0.0267852
-4.95611
0.0232258
-3.96757
0.018995
-3.17554
0.0174599
-2.53876
0.021878
-2.03067
0.00776255
-1.63691
0.00654074
-1.30965
0.00615774
-1.05275
0.00405353
-0.850498
0.0274399
-0.71232
0.0136664
-0.558043
0.0203304
-0.471866
0.0207526
-0.39014
0.0060478
-0.336148
-0.00226286
-0.303804
-0.287622
-0.00559114
3.85443
-1202.87
3.21808
-995.82
2.6952
-824.48
2.26682
-682.656
1.91631
-565.269
1.62954
-468.113
1.39478
-387.71
1.20234
-321.183
1.04431
-266.149
0.914248
-220.64
0.806856
-183.027
0.71785
-151.963
0.643736
-126.336
0.581569
-105.232
0.528848
-87.8967
0.483645
-73.7022
0.444208
-62.1377
0.409146
-52.7928
0.376735
-45.3444
0.345717
-39.5098
0.315143
-35.0718
0.283532
-31.8974
0.249488
-29.853
0.210619
-28.9289
0.165649
-28.9396
0.128295
-23.2341
0.0994547
-18.639
0.0760643
-14.9748
0.0592461
-12.0106
0.0468652
-9.6334
0.0380751
-7.71987
0.0313782
-6.18437
0.0267116
-4.95145
0.022735
-3.9636
0.0190608
-3.17187
0.0174438
-2.53715
0.0178764
-2.03111
0.00992783
-1.62896
0.00593805
-1.30566
0.00165407
-1.04846
-0.0053957
-0.843439
-0.0132111
-0.70449
-0.0103785
-0.560868
-0.0144816
-0.467762
-0.00635672
-0.398255
-0.00731761
-0.335192
-0.00357599
-0.307546
-0.287178
-0.0040079
3.97863
-1202.07
3.32378
-995.164
2.7867
-823.943
2.34764
-682.217
1.98921
-564.91
1.69663
-467.82
1.45762
-387.471
1.26208
-320.987
1.10175
-265.989
0.969955
-220.509
0.861208
-182.918
0.771079
-151.873
0.695963
-126.261
0.632826
-105.169
0.579088
-87.8429
0.532753
-73.6558
0.492014
-62.097
0.455413
-52.7562
0.421143
-45.3101
0.38786
-39.4765
0.354535
-35.0384
0.319506
-31.8624
0.281321
-29.8149
0.237193
-28.8849
0.185814
-28.8882
0.143161
-23.1915
0.110121
-18.606
0.0835023
-14.9483
0.0642584
-11.9915
0.0500604
-9.61921
0.039903
-7.70973
0.0322845
-6.17678
0.0267543
-4.94594
0.0222626
-3.95912
0.0186069
-3.16822
0.0162957
-2.53484
0.0141688
-2.02898
0.0107162
-1.62551
0.00800574
-1.30295
0.00617672
-1.04664
0.00502383
-0.842284
-0.0153196
-0.684156
-0.00365899
-0.572562
0.00661771
-0.478036
0.000440879
-0.39209
-0.0027358
-0.332049
-0.00658644
-0.303574
-0.28721
-0.00637795
4.10923
-1201.25
3.43504
-994.491
2.88321
-823.391
2.43316
-681.767
2.06668
-564.544
1.76826
-467.522
1.52507
-387.228
1.32651
-320.788
1.164
-265.827
1.03059
-220.375
0.920597
-182.808
0.829432
-151.782
0.753375
-126.185
0.6893
-105.105
0.634546
-87.7882
0.587044
-73.6083
0.544924
-62.0549
0.506661
-52.718
0.470359
-45.2739
0.434578
-39.4407
0.398203
-35.002
0.359377
-31.8236
0.316579
-29.7721
0.266607
-28.8349
0.208097
-28.8297
0.159573
-23.1431
0.121873
-18.5684
0.0916744
-14.9181
0.069711
-11.9695
0.0534922
-9.60296
0.0418227
-7.69806
0.0331376
-6.16811
0.0267025
-4.93951
0.0216982
-3.95412
0.0178973
-3.16442
0.0153287
-2.53227
0.0134988
-2.02715
0.0118178
-1.62383
0.0111919
-1.30233
0.0112494
-1.0467
0.00870194
-0.83974
0.00501557
-0.680482
-0.0102574
-0.557298
-0.023133
-0.465266
-0.0203407
-0.394961
-0.014781
-0.337655
-0.0114554
-0.307102
-0.298143
-0.000638088
4.24654
-1200.41
3.55214
-993.796
2.98501
-822.824
2.52366
-681.305
2.14899
-564.169
1.84472
-467.218
1.59739
-386.98
1.39593
-320.587
1.23136
-265.662
1.09647
-220.24
0.98534
-182.697
0.893234
-151.69
0.816304
-126.108
0.751329
-105.039
0.695559
-87.7324
0.646851
-73.5596
0.603269
-62.0113
0.563214
-52.6779
0.524694
-45.2353
0.486169
-39.4022
0.446427
-34.9623
0.403404
-31.7806
0.355497
-29.7242
0.299069
-28.7786
0.232674
-28.7633
0.177681
-23.0881
0.134832
-18.5256
0.100687
-14.884
0.0757102
-11.9446
0.0572578
-9.58451
0.0439191
-7.68474
0.0340415
-6.15825
0.026692
-4.93218
0.0211011
-3.94855
0.0169596
-3.16029
0.0141579
-2.52947
0.0124445
-2.02544
0.0118806
-1.62326
0.0124044
-1.30285
0.0139501
-1.04825
0.013428
-0.839215
0.00639445
-0.673452
0.013274
-0.5642
0.0168802
-0.46887
0.0110333
-0.389107
0.00451059
-0.33116
0.00301067
-0.305322
-0.291381
-0.00351584
4.39086
-1199.54
3.67535
-993.081
3.09232
-822.241
2.61934
-680.833
2.23634
-563.787
1.92621
-466.908
1.67482
-386.729
1.47056
-320.383
1.30407
-265.495
1.16782
-220.104
1.05568
-182.585
0.962727
-151.597
0.884996
-126.03
0.819157
-104.974
0.762372
-87.6757
0.712414
-73.5097
0.667283
-61.9662
0.625298
-52.636
0.584365
-45.1945
0.542837
-39.3606
0.499395
-34.9188
0.45176
-31.733
0.398226
-29.6706
0.334706
-28.7151
0.259649
-28.6883
0.197571
-23.0261
0.149073
-18.4772
0.110602
-14.8455
0.0823027
-11.9163
0.0613941
-9.56356
0.0462269
-7.66957
0.0350359
-6.14707
0.0267119
-4.92387
0.0204484
-3.94229
0.0158068
-3.15565
0.0125025
-2.52617
0.0103176
-2.02325
0.00905946
-1.622
0.0086342
-1.30242
0.00697237
-1.04658
0.00990991
-0.842144
0.0137098
-0.67725
0.0029249
-0.553374
-0.00889683
-0.457024
-0.00644222
-0.391522
-0.00172862
-0.335869
0.00467453
-0.311837
-0.291529
0.00476209
4.54253
-1198.64
3.80495
-992.343
3.20542
-821.641
2.72045
-680.347
2.32896
-563.395
2.01294
-466.591
1.75755
-386.473
1.55061
-320.176
1.38233
-265.327
1.24485
-219.966
1.13181
-182.472
1.03812
-151.503
0.959653
-125.952
0.892986
-104.907
0.835183
-87.6178
0.783932
-73.4584
0.737158
-61.9194
0.693096
-52.5919
0.649545
-45.1509
0.604744
-39.3158
0.557257
-34.8713
0.504577
-31.6803
0.44488
-29.611
0.373619
-28.6439
0.2891
-28.6038
0.219311
-22.9564
0.164655
-18.4226
0.121466
-14.8024
0.089531
-11.8844
0.0659369
-9.53997
0.0487778
-7.65243
0.0361613
-6.13448
0.0268091
-4.91454
0.0198036
-3.9353
0.0145337
-3.15039
0.0105441
-2.52218
0.00743663
-2.02014
0.00490761
-1.61948
0.00285223
-1.30036
0.0014171
-1.04515
-0.00319519
-0.837527
0.000890882
-0.681316
0.0129382
-0.565406
0.0216254
-0.465687
0.0128733
-0.382726
0.0126124
-0.33555
0.00472635
-0.303915
-0.292596
0.00582882
4.7019
-1197.71
3.94123
-991.582
3.32454
-821.025
2.8272
-679.85
2.42704
-562.995
2.1051
-466.27
1.84576
-386.214
1.63624
-319.966
1.46629
-265.157
1.32772
-219.828
1.2139
-182.358
1.11956
-151.409
1.04043
-125.872
0.97297
-104.84
0.914142
-87.5591
0.861545
-73.4059
0.813029
-61.8709
0.766737
-52.5457
0.720355
-45.1046
0.672002
-39.2674
0.620112
-34.8194
0.561946
-31.6222
0.495539
-29.5446
0.415878
-28.5642
0.321092