/*--------------------------------*- C++ -*----------------------------------*\
  =========                 |
  \\      /  F ield         | OpenFOAM: The Open Source CFD Toolbox
   \\    /   O peration     | Website:  https://openfoam.org
    \\  /    A nd           | Version:  10
     \\/     M anipulation  |
\*---------------------------------------------------------------------------*/
FoamFile
{
    format      ascii;
    class       volVectorField;
    location    "10";
    object      U;
}
// * * * * * * * * * * * * * * * * * * * * * * * * * * * * * * * * * * * * * //

dimensions      [0 1 -1 0 0 0 0];

internalField   nonuniform List<vector> 
38016
(
(51.3076 9.04637 2.8437e-25)
(51.3068 9.05007 1.56656e-25)
(51.3079 9.04956 -1.09698e-25)
(51.3084 9.04905 0)
(51.3089 9.04848 0)
(51.309 9.04871 0)
(51.3098 9.04842 -4.86656e-25)
(51.3111 9.048 -5.10206e-21)
(51.313 9.04741 1.00287e-24)
(51.3156 9.04653 -1.20694e-24)
(51.3168 9.05146 -4.35046e-21)
(51.3209 9.04888 3.63612e-24)
(51.3277 9.04536 -3.87374e-20)
(51.3307 9.04551 -6.47842e-20)
(51.3468 9.0481 5.71824e-21)
(51.3537 9.04478 0)
(51.3735 9.03493 0)
(51.3957 9.02549 0)
(51.4254 9.01108 -6.22744e-23)
(51.4781 8.99248 1.44416e-22)
(51.5445 9.01722 -4.47125e-21)
(51.5881 8.95499 3.55403e-20)
(51.5819 8.91278 -2.62614e-21)
(51.8222 8.87369 -1.41812e-23)
(51.8613 8.85263 1.80443e-21)
(52.1565 8.81552 9.51223e-25)
(52.3337 8.88443 3.5335e-21)
(52.5629 8.91257 -3.96607e-23)
(52.5863 8.80797 -6.28755e-26)
(52.8836 8.84383 0)
(53.0817 8.97867 2.40227e-25)
(53.0372 9.16586 8.10973e-22)
(53.3915 9.30511 7.22786e-21)
(53.1989 9.44394 0)
(53.7443 9.30439 0)
(53.9695 9.423 0)
(54.026 9.98138 0)
(53.3355 10.2137 2.10581e-22)
(53.6653 10.2345 -2.55878e-21)
(53.6924 10.4471 -5.97225e-23)
(53.4318 10.4427 -1.06456e-22)
(52.9971 9.95646 3.59547e-22)
(53.6945 9.62466 -3.54796e-22)
(55.2018 9.68779 1.60964e-21)
(55.5072 10.3624 0)
(53.6217 10.207 0)
(53.6678 9.9144 -9.58308e-21)
(54.0534 9.90812 6.53955e-22)
(51.3079 9.04631 -1.86006e-20)
(51.307 9.05009 3.60297e-25)
(51.3077 9.04923 1.66347e-20)
(51.3091 9.0494 0)
(51.3093 9.04893 0)
(51.309 9.04867 -9.25374e-21)
(51.3098 9.04837 3.03999e-26)
(51.3111 9.04794 5.14955e-21)
(51.313 9.04733 -7.36813e-21)
(51.3158 9.0464 -7.32941e-25)
(51.316 9.04979 -1.45359e-20)
(51.3233 9.04796 -6.89065e-24)
(51.3278 9.05125 4.55341e-21)
(51.3294 9.05214 7.83132e-21)
(51.3402 9.05433 -9.61814e-21)
(51.3574 9.03591 1.52843e-19)
(51.3794 9.04726 1.225e-20)
(51.3825 9.04146 -1.91129e-23)
(51.4344 9.00858 -2.47485e-23)
(51.4401 9.0213 2.89228e-23)
(51.5334 9.0071 8.36901e-20)
(51.6025 8.93986 -2.149e-19)
(51.6561 8.93772 7.79281e-21)
(51.8198 8.8975 4.01129e-21)
(51.8984 8.91497 -4.43934e-20)
(52.2023 8.84156 1.67891e-23)
(52.2056 8.94109 1.97366e-20)
(52.6797 8.94585 7.33416e-20)
(52.6948 8.82453 -7.21809e-20)
(53.0043 8.88579 0)
(52.9845 9.0089 0)
(53.5518 9.24609 -7.58141e-21)
(53.6539 9.3218 -7.83033e-21)
(53.2576 9.47128 -2.67294e-20)
(53.4399 9.36648 0)
(54.4363 9.47031 3.3111e-20)
(54.0225 9.75044 0)
(53.9847 10.1218 -1.16253e-21)
(53.9922 10.0936 1.06179e-21)
(53.7644 10.0789 6.70811e-22)
(53.3815 9.9838 4.99811e-22)
(53.084 9.41424 -2.01824e-21)
(54.4443 9.2461 2.94946e-22)
(55.4054 9.33504 3.17502e-22)
(56.2901 10.0993 0)
(55.3014 9.87892 0)
(54.4859 9.56054 -1.76699e-20)
(54.3482 9.59252 9.94443e-21)
(51.3079 9.04635 -1.73005e-23)
(51.3071 9.05005 0)
(51.3079 9.04931 -3.20336e-20)
(51.3087 9.04909 0)
(51.3094 9.04879 0)
(51.309 9.04863 9.25332e-21)
(51.3098 9.04831 -2.41381e-25)
(51.3111 9.04786 3.77731e-25)
(51.313 9.04722 7.36579e-21)
(51.3158 9.04629 -7.24208e-25)
(51.3153 9.04955 2.90271e-20)
(51.3244 9.0471 6.62069e-20)
(51.3282 9.04363 -1.54636e-19)
(51.3276 9.04715 -6.44325e-23)
(51.3494 9.04542 6.98211e-23)
(51.361 9.04791 -1.88155e-20)
(51.3912 9.03838 -1.2481e-20)
(51.4068 9.0335 2.99739e-24)
(51.4671 9.00492 -9.05253e-23)
(51.5052 8.99499 0)
(51.5564 8.98183 -3.31356e-19)
(51.5944 8.9534 1.17592e-20)
(51.6603 8.97033 -1.0733e-20)
(51.8969 8.89996 -1.89564e-20)
(51.9451 8.92167 -8.49277e-23)
(52.2703 8.88412 0)
(52.3317 8.9214 1.67853e-19)
(52.8774 8.97891 1.01521e-20)
(53.1132 8.86325 -1.08925e-20)
(53.0455 8.94514 0)
(53.1065 9.01876 1.04958e-21)
(53.0837 9.32114 -1.10348e-21)
(53.8905 9.30178 -8.244e-22)
(53.5221 9.54457 -5.2304e-21)
(53.5068 9.33221 1.00952e-20)
(53.8229 9.47247 2.74384e-21)
(53.7998 9.63125 0)
(53.6463 9.84745 1.4859e-21)
(53.9669 9.81209 -3.49381e-22)
(53.754 9.82654 -5.49071e-21)
(53.1354 9.54488 3.47517e-21)
(53.0029 9.22135 -8.65574e-21)
(54.4553 8.97722 -2.84809e-21)
(56.0868 9.01223 -2.18764e-22)
(56.278 9.50711 6.0915e-22)
(53.742 8.7854 1.62132e-22)
(54.9037 9.9058 -5.55234e-23)
(53.4902 9.21203 -5.92257e-21)
(51.308 9.04639 4.78407e-20)
(51.3071 9.04991 0)
(51.308 9.04935 7.89243e-21)
(51.3085 9.04881 4.7376e-24)
(51.309 9.04839 4.47234e-20)
(51.309 9.04859 -6.5432e-25)
(51.3098 9.04826 -1.43114e-20)
(51.3111 9.04779 0)
(51.313 9.04713 -1.45068e-20)
(51.3158 9.04616 0)
(51.3173 9.0471 1.14726e-19)
(51.3229 9.04899 -1.59244e-20)
(51.3292 9.04996 1.96214e-20)
(51.3295 9.0435 4.96506e-23)
(51.3519 9.04968 2.99934e-20)
(51.3739 9.0453 3.43795e-20)
(51.4003 9.03544 -1.22008e-22)
(51.4303 9.02799 1.43731e-22)
(51.4778 9.0059 0)
(51.5136 9.01613 -3.19018e-20)
(51.5931 9.00437 4.17468e-20)
(51.6322 8.95708 -1.41887e-19)
(51.7145 8.93668 4.84867e-19)
(51.8984 8.90424 7.67343e-21)
(51.9722 8.93775 8.76422e-20)
(52.2766 8.89811 4.76766e-22)
(52.5591 8.94905 -5.57077e-22)
(52.751 9.00449 -3.96931e-20)
(52.8154 8.92041 9.61957e-21)
(53.1612 8.88199 0)
(53.3754 8.9836 0)
(53.1669 9.2861 6.10786e-22)
(53.8749 9.32082 -3.18437e-20)
(54.0944 9.52926 0)
(54.0344 9.40012 -4.59106e-21)
(53.7725 9.55273 0)
(53.8332 9.33394 0)
(53.6169 9.44402 1.48606e-20)
(53.9247 9.62527 -8.71322e-21)
(53.9414 9.61298 -2.21939e-20)
(53.0242 9.19267 1.42401e-20)
(53.0683 9.04314 8.40633e-21)
(53.9586 8.68285 -1.97317e-21)
(55.877 8.83554 1.31114e-21)
(55.9798 9.26457 0)
(53.7804 7.72649 -6.32194e-23)
(54.6162 9.33552 3.48092e-21)
(54.3729 8.72372 8.95844e-20)
(51.3084 9.04624 -3.4958e-20)
(51.3079 9.04992 -1.48428e-24)
(51.3076 9.04894 4.86026e-20)
(51.3092 9.04914 -1.09606e-20)
(51.3089 9.04846 -4.47071e-20)
(51.309 9.04856 -1.82409e-20)
(51.3098 9.04821 -1.41026e-20)
(51.3111 9.04772 0)
(51.313 9.04704 1.45121e-20)
(51.3158 9.04598 -2.9882e-25)
(51.3219 9.04977 -1.35692e-20)
(51.3238 9.04368 -2.02699e-23)
(51.3322 9.04802 0)
(51.3379 9.04905 1.02525e-23)
(51.3584 9.04929 -4.07001e-20)
(51.384 9.02569 -2.99663e-19)
(51.4036 9.02166 -2.17325e-19)
(51.4345 9.02249 1.63391e-19)
(51.495 8.98762 0)
(51.5015 9.00579 6.3296e-20)
(51.597 8.98895 -1.11815e-19)
(51.6531 8.93317 2.87946e-19)
(51.693 8.95784 -3.66901e-20)
(51.8779 8.89462 -3.6489e-22)
(51.9813 8.92431 3.65754e-22)
(52.3097 8.88127 4.82589e-22)
(52.4189 8.96695 -1.58855e-19)
(52.873 8.92831 2.19478e-19)
(52.917 8.88816 4.83504e-22)
(53.3931 8.94046 0)
(53.6272 9.01976 1.134e-21)
(53.0622 9.26773 -4.23781e-20)
(53.6688 9.27733 1.74161e-20)
(53.7899 9.42267 0)
(53.7595 9.49988 0)
(53.0932 9.69137 9.48046e-21)
(53.5676 9.47077 -2.2752e-21)
(53.755 9.36527 -3.55408e-21)
(54.1185 9.43717 -1.42961e-22)
(54.073 9.69368 -7.27845e-21)
(53.1583 8.98049 -1.41747e-20)
(53.1736 8.82655 -1.75832e-20)
(53.9591 8.36763 -4.34283e-21)
(55.1475 8.14861 3.04653e-20)
(55.5622 8.6257 -1.71195e-21)
(54.2457 7.86131 -7.13887e-20)
(55.0446 9.19576 -4.90256e-23)
(54.9378 9.46157 6.4888e-22)
(51.3085 9.04628 0)
(51.3074 9.04982 0)
(51.308 9.04925 -2.00813e-20)
(51.3088 9.0488 2.24377e-20)
(51.3087 9.04838 0)
(51.309 9.04851 1.8237e-20)
(51.3098 9.04815 2.84376e-20)
(51.311 9.04765 -1.14145e-24)
(51.313 9.04694 0)
(51.3159 9.04582 0)
(51.3202 9.04659 -1.81909e-19)
(51.3246 9.04774 0)
(51.3348 9.04286 0)
(51.3412 9.04596 -3.05463e-20)
(51.3617 9.04505 -4.46614e-20)
(51.3799 9.03322 3.49592e-20)
(51.4065 9.03496 2.32866e-20)
(51.4453 9.00956 -6.62838e-19)
(51.4778 8.97994 -2.4892e-22)
(51.516 8.98338 -1.00542e-19)
(51.6037 8.95654 4.50929e-19)
(51.6213 8.94121 0)
(51.711 8.93835 1.64011e-19)
(51.8706 8.87446 0)
(51.9583 8.90922 0)
(52.3291 8.85413 -5.19448e-22)
(52.4729 8.90319 4.8736e-19)
(52.9848 8.92949 6.43469e-20)
(52.9432 8.87489 3.33635e-20)
(53.2056 8.92518 0)
(53.5613 9.04251 1.91906e-20)
(53.1536 9.27643 -2.6434e-21)
(53.0788 9.40383 1.44384e-20)
(53.608 9.39077 -3.07213e-20)
(53.6225 9.44963 -1.29049e-20)
(54.0031 9.70636 -3.10572e-20)
(53.6278 9.17498 3.52813e-21)
(53.9948 9.28172 -1.99233e-21)
(54.6923 9.41829 -3.27733e-21)
(54.3161 9.27832 3.49834e-21)
(53.323 8.88149 4.25667e-20)
(53.5593 8.63025 3.83668e-20)
(54.0574 8.2125 -7.38899e-21)
(55.2144 8.10894 -6.40073e-21)
(55.2676 7.94025 6.14268e-20)
(54.515 7.70723 -6.6757e-20)
(54.9105 8.43614 5.01773e-21)
(54.6876 8.66474 1.53634e-22)
(51.3088 9.0463 -4.95146e-24)
(51.308 9.0498 0)
(51.3084 9.04903 1.71357e-20)
(51.309 9.04882 -4.53141e-24)
(51.3086 9.04834 6.81167e-24)
(51.309 9.04847 -6.62341e-24)
(51.3098 9.04809 -2.80017e-20)
(51.311 9.04757 3.94685e-20)
(51.313 9.04683 0)
(51.3159 9.04566 -4.18212e-20)
(51.32 9.04833 3.41194e-20)
(51.3259 9.04613 3.85039e-24)
(51.3356 9.04695 -5.02278e-24)
(51.3402 9.03835 1.30784e-19)
(51.3586 9.03516 1.98098e-19)
(51.3811 9.01623 -3.08212e-19)
(51.4164 9.01366 -1.80535e-22)
(51.4387 9.02688 3.57962e-20)
(51.4587 8.98211 1.03909e-22)
(51.5255 8.98034 0)
(51.6059 8.97654 -4.04017e-20)
(51.6623 8.9286 -2.15165e-19)
(51.736 8.93848 0)
(51.9223 8.86577 0)
(52.0273 8.88219 7.26124e-22)
(52.4448 8.83559 -4.66493e-22)
(52.698 8.90495 5.33515e-20)
(52.9703 8.94315 -3.83563e-20)
(53.0675 8.87243 -3.85566e-22)
(53.3111 8.90059 -2.71257e-21)
(53.4561 8.98467 6.55458e-20)
(53.3173 9.26036 -8.54799e-20)
(53.2567 9.3603 8.33393e-20)
(53.4674 9.33015 8.02358e-20)
(53.7268 9.42427 0)
(54.2925 9.54852 6.22823e-21)
(54.8826 9.14323 4.83874e-21)
(53.9038 9.07521 4.80874e-20)
(54.6011 8.92626 2.56532e-21)
(54.6828 9.16554 2.97016e-20)
(53.7238 8.77439 0)
(53.3161 8.49775 4.16108e-21)
(53.7309 7.96522 -2.10706e-23)
(55.155 8.08648 -5.016e-20)
(55.7693 7.9904 2.73579e-19)
(54.7309 7.87567 1.34576e-21)
(54.9381 8.32229 -7.87604e-20)
(54.9738 8.23343 1.64873e-20)
(51.3085 9.04641 1.37144e-19)
(51.3077 9.04981 -8.74956e-21)
(51.3084 9.04877 2.19217e-20)
(51.3085 9.04847 8.81417e-20)
(51.3085 9.04827 -2.37167e-24)
(51.309 9.04842 4.04899e-24)
(51.3098 9.04803 5.5806e-20)
(51.311 9.04749 -3.94747e-20)
(51.313 9.04672 6.33417e-25)
(51.3159 9.04548 4.17853e-20)
(51.3202 9.04555 0)
(51.3266 9.04323 -2.00917e-19)
(51.3343 9.04507 -5.72348e-24)
(51.3416 9.03235 5.55163e-23)
(51.36 9.0265 1.13312e-22)
(51.3787 9.023 6.85631e-20)
(51.4143 9.02299 2.71307e-23)
(51.4297 9.02038 -3.20273e-23)
(51.4937 8.95341 0)
(51.5436 8.96244 0)
(51.6352 8.94167 0)
(51.7103 8.91794 4.34965e-20)
(51.7973 8.91752 1.60864e-23)
(51.9844 8.85575 -1.29892e-20)
(52.0779 8.86207 0)
(52.5401 8.77342 0)
(52.7035 8.8847 0)
(53.0536 8.9218 -3.95231e-21)
(53.1882 8.78882 -2.77613e-19)
(53.5581 8.7541 1.7496e-19)
(53.5817 8.7919 1.12318e-19)
(53.4731 9.21183 9.60847e-20)
(54.1932 9.44399 -9.21228e-21)
(53.5862 9.35013 -4.09248e-20)
(53.6943 9.33144 0)
(53.8427 9.24651 0)
(54.6741 9.05325 4.54526e-21)
(53.5619 9.07926 -2.02762e-21)
(54.712 8.84107 -2.73984e-21)
(54.9285 9.1568 2.42432e-21)
(53.6108 8.57513 5.3263e-20)
(53.3356 8.54662 -1.37619e-19)
(53.764 8.05309 2.00068e-19)
(55.3271 8.1286 0)
(55.1265 8.33441 8.96063e-21)
(55.01 7.65475 3.00937e-19)
(55.2462 8.18382 1.55395e-20)
(55.0688 8.03829 -3.09404e-22)
(51.3087 9.04639 -1.28641e-19)
(51.3079 9.04978 8.75838e-21)
(51.3086 9.04875 -4.46832e-20)
(51.3091 9.04887 -2.19551e-20)
(51.3084 9.04845 0)
(51.309 9.04838 2.53114e-24)
(51.3098 9.04797 2.73634e-20)
(51.311 9.04741 0)
(51.313 9.04661 -5.57855e-20)
(51.3159 9.04526 0)
(51.3211 9.04443 6.04354e-24)
(51.3261 9.04179 1.92783e-19)
(51.3327 9.03996 0)
(51.3423 9.03755 0)
(51.3596 9.03271 1.26392e-23)
(51.3836 9.01134 -3.08021e-19)
(51.4106 9.01624 2.23164e-23)
(51.42 9.00727 -1.10753e-19)
(51.475 8.9726 0)
(51.5432 8.96718 0)
(51.6434 8.92402 0)
(51.6981 8.9003 -5.74497e-22)
(51.7896 8.89952 6.15335e-22)
(51.9772 8.82257 1.95014e-19)
(52.0465 8.82388 0)
(52.5962 8.76321 0)
(52.6696 8.80424 1.56807e-19)
(52.9737 8.80679 -4.32452e-19)
(53.3627 8.75445 2.71635e-22)
(53.7195 8.82144 3.82614e-20)
(53.7489 8.92408 4.53608e-20)
(53.4672 8.94637 1.82202e-19)
(54.2275 9.13077 -1.20167e-19)
(53.8551 9.34198 0)
(53.8302 9.25991 0)
(53.9303 9.01216 1.55431e-19)
(54.6333 8.92964 -4.12952e-20)
(53.5624 8.95152 -5.39291e-20)
(54.4898 8.51812 5.57624e-20)
(54.6817 8.88106 -8.61657e-22)
(53.777 8.53298 -5.49107e-20)
(53.4321 8.76649 6.73973e-20)
(53.8337 8.55984 0)
(54.8193 8.37309 0)
(54.4261 7.81296 -2.31075e-20)
(55.0313 8.02484 0)
(54.9074 8.1818 3.30854e-22)
(54.7552 7.78263 0)
(51.3091 9.04624 6.75244e-20)
(51.3081 9.0497 0)
(51.3083 9.04864 -4.39987e-20)
(51.3086 9.04842 -5.83369e-20)
(51.3083 9.0481 -1.57017e-19)
(51.309 9.04832 -5.02956e-24)
(51.3098 9.0479 -1.09913e-19)
(51.311 9.04732 -7.04438e-24)
(51.313 9.04649 5.57906e-20)
(51.3159 9.04507 2.30412e-24)
(51.3202 9.04547 7.66879e-20)
(51.3275 9.04322 0)
(51.3325 9.03499 0)
(51.3423 9.03021 0)
(51.3619 9.02326 -1.994e-19)
(51.3866 9.00258 6.1968e-19)
(51.4108 9.00929 -5.02869e-20)
(51.4318 8.99586 1.95781e-19)
(51.4485 8.96322 -4.60849e-23)
(51.5689 8.93308 0)
(51.6371 8.89844 6.02105e-22)
(51.6915 8.86349 -9.88815e-22)
(51.7848 8.84703 0)
(51.9739 8.79507 -3.89232e-19)
(52.0764 8.75171 1.50196e-21)
(52.5387 8.72052 3.1492e-22)
(52.6038 8.73997 -1.58201e-19)
(52.9784 8.82284 1.30826e-21)
(53.0106 8.72677 -4.49677e-20)
(53.4612 8.70554 5.76054e-21)
(53.7647 8.8963 -3.01617e-21)
(53.5265 9.02 2.80979e-20)
(53.9796 9.27841 0)
(54.3236 9.10852 0)
(54.5606 9.1517 1.3723e-20)
(54.6055 9.04049 1.59926e-20)
(55.2689 9.07398 -1.64716e-20)
(54.4097 9.03689 -1.51551e-20)
(55.0653 8.48842 -9.59683e-22)
(54.5004 8.61494 -8.54958e-20)
(53.8887 8.46755 5.5289e-20)
(53.3595 8.73581 2.4087e-21)
(53.5007 8.30881 -6.33743e-20)
(54.3016 7.84028 -1.29502e-20)
(54.7079 8.11877 1.45791e-20)
(55.0113 7.80759 -2.93663e-19)
(54.8341 7.76047 3.25298e-19)
(55.416 7.91659 -3.30897e-19)
(51.3088 9.04636 -9.06834e-24)
(51.3078 9.04949 -3.00469e-20)
(51.3083 9.04866 8.72763e-20)
(51.3088 9.04858 2.77874e-20)
(51.3083 9.04858 5.35866e-20)
(51.3089 9.04827 4.01733e-24)
(51.3097 9.04784 5.4749e-20)
(51.311 9.04723 4.39568e-24)
(51.3129 9.04636 -1.89455e-24)
(51.3159 9.04486 2.285e-24)
(51.3204 9.04311 -1.19289e-22)
(51.327 9.03894 4.13412e-25)
(51.3336 9.03093 0)
(51.3442 9.02489 -5.24173e-19)
(51.3642 9.01642 3.98759e-19)
(51.3722 9.01146 -6.98727e-20)
(51.3943 9.00393 4.90505e-20)
(51.4355 8.9971 7.33442e-20)
(51.4729 8.92534 5.37571e-22)
(51.5585 8.95308 1.83443e-24)
(51.6199 8.89903 -5.35871e-24)
(51.6971 8.87089 4.30094e-20)
(51.772 8.85856 4.37424e-23)
(52.0202 8.72409 8.01056e-19)
(52.0958 8.71827 0)
(52.5961 8.67335 4.94445e-22)
(52.7252 8.57864 2.42237e-21)
(52.9014 8.77244 -1.05115e-19)
(53.0078 8.65517 2.05937e-21)
(53.5685 8.64487 -4.68684e-22)
(53.6383 8.74959 -4.42591e-20)
(53.662 8.8876 -1.15412e-19)
(53.7299 9.08711 2.47791e-21)
(54.546 9.1977 5.78619e-20)
(54.6897 8.97576 7.80816e-20)
(54.4609 8.91578 0)
(55.2029 8.91673 0)
(54.1987 8.90931 -7.0971e-21)
(54.9689 8.34119 -6.5865e-20)
(54.8489 8.75792 1.15786e-21)
(53.7867 8.41193 -4.49257e-20)
(53.6151 8.77679 6.72957e-20)
(53.6439 8.49198 -2.11259e-20)
(54.5836 8.21132 1.28813e-20)
(54.6787 8.06248 1.10332e-19)
(55.0911 8.01133 3.74814e-20)
(55.3182 7.8502 0)
(55.7265 7.96486 4.24036e-20)
(51.3089 9.04626 -1.31375e-19)
(51.3079 9.04941 -4.12615e-20)
(51.3086 9.04859 -4.3298e-20)
(51.3085 9.04851 8.5412e-20)
(51.3083 9.04856 -5.39619e-24)
(51.3089 9.04821 -7.06687e-20)
(51.3097 9.04777 0)
(51.311 9.04713 7.59593e-20)
(51.3129 9.04623 5.44176e-20)
(51.3159 9.04464 4.03057e-20)
(51.3208 9.04081 -9.17508e-19)
(51.3263 9.04154 -6.03121e-25)
(51.3338 9.03703 0)
(51.3415 9.03192 1.2496e-19)
(51.358 9.0251 9.26738e-20)
(51.3676 9.00232 2.29319e-19)
(51.4031 8.98462 -1.11809e-22)
(51.4498 8.95764 -6.93896e-19)
(51.4286 8.94482 0)
(51.5545 8.93239 6.24099e-23)
(51.6055 8.87555 -7.6344e-23)
(51.7288 8.85656 -7.99658e-20)
(51.8127 8.83958 -4.57852e-23)
(52.0632 8.71574 -8.97582e-23)
(52.0668 8.63585 3.64291e-20)
(52.6465 8.5655 1.09049e-19)
(52.8383 8.5423 -8.62077e-20)
(52.9948 8.68747 4.46699e-19)
(53.0096 8.57443 4.21431e-21)
(53.442 8.60013 7.48995e-20)
(53.4721 8.49508 -1.31816e-19)
(53.562 8.87193 -4.91495e-22)
(53.8568 9.05408 -3.66384e-20)
(54.3986 9.09163 -5.16526e-20)
(54.6505 8.90423 1.34003e-20)
(54.3623 8.83735 1.24427e-19)
(55.1322 8.71015 8.26344e-20)
(53.9363 8.6246 -5.03998e-20)
(55.4701 8.56808 -8.00276e-21)
(54.0208 8.41065 6.28926e-20)
(53.8366 8.25672 -2.28751e-19)
(53.8171 8.92089 1.31368e-19)
(53.8081 8.69947 -1.67364e-19)
(54.5733 8.35267 4.34507e-19)
(54.9102 7.96809 -3.31258e-19)
(54.0969 7.72785 0)
(55.8308 7.57973 -6.88661e-19)
(54.4632 7.98233 -1.93345e-20)
(51.3089 9.04627 2.70691e-19)
(51.3077 9.04936 2.21957e-19)
(51.3086 9.04847 -4.24483e-20)
(51.3086 9.04844 -1.70484e-19)
(51.3083 9.04851 0)
(51.3089 9.04816 7.06746e-20)
(51.3097 9.04769 0)
(51.311 9.04703 -7.59704e-20)
(51.3129 9.0461 -5.44181e-20)
(51.3158 9.04443 -4.02786e-20)
(51.3194 9.04325 1.05171e-19)
(51.3255 9.03952 4.46573e-20)
(51.3292 9.03518 -7.51895e-20)
(51.3386 9.0276 -1.36933e-19)
(51.3578 9.01985 -2.49539e-19)
(51.3629 8.99832 -2.11026e-19)
(51.3697 8.98935 0)
(51.423 8.98317 0)
(51.4666 8.92272 -2.72391e-22)
(51.523 8.91704 -6.91685e-20)
(51.6032 8.84468 3.71681e-19)
(51.7041 8.82592 0)
(51.7851 8.79712 0)
(51.974 8.67147 0)
(51.9615 8.58888 -7.46303e-21)
(52.5406 8.46611 -1.97225e-19)
(52.5501 8.42097 6.25105e-20)
(53.0221 8.61744 4.33587e-21)
(52.9642 8.49627 0)
(53.2051 8.4648 0)
(53.5982 8.37306 -9.51138e-21)
(53.4763 8.73059 -7.01743e-20)
(53.9736 8.72911 -2.24425e-19)
(54.5461 8.96778 -1.36532e-20)
(54.6406 8.80121 5.1124e-20)
(54.4285 8.73171 -1.24609e-19)
(55.4956 8.76969 -9.77581e-22)
(53.7023 8.51281 -5.08787e-20)
(54.9731 8.28182 0)
(54.1276 8.42296 2.26504e-19)
(53.7136 8.66161 -7.21952e-21)
(53.6907 8.81537 0)
(53.8249 8.80279 0)
(54.8264 8.66489 -3.42071e-21)
(54.217 8.36968 0)
(53.8565 8.08151 2.74447e-21)
(55.467 8.38729 -4.90196e-21)
(55.0948 7.69139 -2.1684e-20)
(51.3089 9.04628 -1.33958e-19)
(51.3077 9.0493 4.35914e-22)
(51.3083 9.0484 -5.76579e-20)
(51.3085 9.04835 1.69703e-19)
(51.3083 9.04846 -4.85512e-20)
(51.3089 9.0481 -7.94888e-24)
(51.3097 9.04761 0)
(51.311 9.04693 5.06008e-24)
(51.3129 9.04595 -6.10556e-24)
(51.3158 9.0442 0)
(51.3192 9.04079 1.56509e-22)
(51.3236 9.03909 -4.42193e-20)
(51.3278 9.03242 7.78315e-20)
(51.3334 9.02602 -1.77029e-19)
(51.3487 9.02019 0)
(51.3585 9.00058 0)
(51.3799 8.98286 0)
(51.4255 8.97014 0)
(51.4669 8.92371 2.74416e-22)
(51.5085 8.88127 3.52531e-19)
(51.5594 8.84202 -1.70395e-19)
(51.6637 8.80966 -8.2232e-23)
(51.7978 8.76915 3.42379e-22)
(51.9098 8.61941 -5.67607e-20)
(52.0168 8.53669 -2.12201e-19)
(52.3611 8.38296 7.11784e-20)
(52.2885 8.43176 -4.73628e-22)
(53.2162 8.52583 2.07762e-21)
(53.1864 8.40757 1.5394e-19)
(53.0676 8.44433 0)
(53.5767 8.30512 0)
(53.5801 8.60966 3.95178e-20)
(54.0602 8.70471 -1.01583e-20)
(54.4677 8.79338 1.08355e-20)
(54.2087 8.68871 -5.43345e-20)
(54.4126 8.80481 2.35458e-20)
(55.2416 8.59989 2.47243e-20)
(53.7854 8.38194 1.0645e-19)
(54.9403 8.17354 -1.58233e-19)
(53.6052 8.58002 2.99388e-20)
(53.6197 8.45645 2.25381e-20)
(54.0579 8.6394 4.92872e-19)
(54.0362 8.76414 -1.48914e-19)
(54.7409 9.25153 -6.97663e-20)
(53.6493 8.55864 -2.39759e-19)
(53.819 8.32762 -2.55211e-19)
(55.1648 8.67463 -1.15367e-19)
(54.8309 8.31354 0)
(51.3091 9.04608 2.68824e-19)
(51.3074 9.04913 -5.1822e-20)
(51.3084 9.04854 7.24507e-20)
(51.3084 9.04827 -1.08232e-22)
(51.3083 9.04841 4.85836e-20)
(51.3089 9.04803 1.76495e-23)
(51.3097 9.04753 -1.17589e-23)
(51.3109 9.04682 7.41484e-20)
(51.3128 9.0458 7.33635e-24)
(51.3158 9.04398 -8.84761e-24)
(51.3197 9.03877 -4.61942e-19)
(51.3222 9.03766 4.61653e-24)
(51.3262 9.03171 -7.72217e-20)
(51.3339 9.02061 -2.46402e-21)
(51.3495 9.01639 1.02312e-19)
(51.3623 8.9976 2.19197e-23)
(51.3735 8.97681 -2.53175e-23)
(51.3977 8.96802 0)
(51.4841 8.90108 5.10581e-22)
(51.4817 8.8674 6.41562e-23)
(51.5901 8.82485 2.14363e-19)
(51.6931 8.75553 0)
(51.6664 8.73858 -3.81434e-20)
(51.9168 8.56896 9.52866e-19)
(51.8855 8.5244 9.4274e-22)
(52.403 8.25929 4.60211e-19)
(52.4351 8.23546 -3.51187e-19)
(52.9907 8.36926 -2.59592e-21)
(53.1857 8.35696 3.6837e-21)
(52.9821 8.33189 -4.47257e-21)
(53.5803 8.24789 -6.32348e-21)
(53.6153 8.37867 -5.97411e-20)
(53.7248 8.4721 3.69575e-20)
(54.1255 8.63657 1.43529e-20)
(54.041 8.42212 -7.235e-20)
(54.156 8.48869 -4.68275e-20)
(55.0539 8.45162 -1.77192e-20)
(53.6048 8.77509 0)
(55.2888 7.85209 -3.33994e-22)
(53.1579 8.32715 -6.95335e-21)
(53.6004 8.57788 0)
(53.6018 9.08168 6.53275e-21)
(54.0953 8.60049 2.09036e-20)
(53.1336 9.238 1.69545e-21)
(53.2717 8.83123 0)
(54.0725 8.77655 -1.43182e-20)
(55.0906 9.0357 0)
(54.9247 8.31191 0)
(51.3089 9.04619 -2.72038e-19)
(51.3072 9.04911 1.30489e-19)
(51.3081 9.04809 -1.70448e-19)
(51.3083 9.0483 7.42021e-20)
(51.3083 9.04836 0)
(51.3089 9.04797 0)
(51.3097 9.04745 1.04365e-19)
(51.3109 9.04671 -7.41603e-20)
(51.3128 9.04565 0)
(51.3157 9.04374 -5.25982e-24)
(51.3196 9.04208 6.34735e-24)
(51.3215 9.03663 -9.21674e-20)
(51.3258 9.03044 7.72103e-20)
(51.3358 9.01252 1.08163e-18)
(51.3475 9.01337 1.91388e-21)
(51.3613 8.99432 0)
(51.3784 8.9706 0)
(51.4022 8.95753 4.36932e-23)
(51.4618 8.92419 -5.54266e-23)
(51.5131 8.83584 -1.44702e-18)
(51.5778 8.82061 7.72139e-23)
(51.5726 8.7622 0)
(51.6827 8.70154 1.52954e-19)
(51.9182 8.5431 -1.27e-19)
(51.9952 8.41343 0)
(52.3965 8.23745 0)
(52.3899 8.20534 -3.65489e-20)
(52.8314 8.28345 9.79171e-20)
(53.1329 8.23004 1.10059e-19)
(52.9792 8.28101 0)
(53.516 8.19178 0)
(53.2318 8.4109 -2.48111e-22)
(53.8334 8.20372 2.43405e-19)
(53.9824 8.34467 2.26997e-20)
(54.2232 8.17305 1.99351e-19)
(53.9608 8.44835 4.75264e-23)
(54.8718 8.29675 7.4591e-20)
(53.1728 8.33991 -3.41573e-20)
(54.8153 8.42285 3.83515e-20)
(53.208 7.9848 3.93614e-19)
(53.4304 8.67799 -2.20024e-19)
(53.2824 8.69674 0)
(53.9681 8.68294 -2.12064e-20)
(53.0129 8.85968 0)
(53.3238 9.27664 5.27329e-19)
(54.1608 8.86954 -6.81798e-19)
(54.3497 9.0775 0)
(55.001 8.75727 0)
(51.308 9.04622 0)
(51.3078 9.04921 -3.88854e-20)
(51.3079 9.04843 -7.14576e-22)
(51.3081 9.04832 -1.69845e-19)
(51.3083 9.0483 -9.62386e-20)
(51.3089 9.0479 6.91179e-20)
(51.3097 9.04736 -1.04388e-19)
(51.3109 9.04659 -9.86342e-24)
(51.3128 9.04548 1.04198e-19)
(51.3157 9.04349 -7.73215e-20)
(51.3185 9.04109 1.9214e-24)
(51.32 9.03577 8.7029e-20)
(51.3244 9.02914 5.54e-24)
(51.3298 9.0213 1.24819e-19)
(51.3443 9.01078 -9.75067e-20)
(51.3701 8.98502 -6.36745e-19)
(51.385 8.9624 3.96817e-23)
(51.3978 8.94895 0)
(51.4667 8.91993 0)
(51.4878 8.87049 1.42859e-19)
(51.5835 8.80481 -7.91735e-23)
(51.625 8.73472 -2.32475e-22)
(51.6556 8.65876 -2.95351e-20)
(51.9145 8.51278 1.40953e-20)
(51.9859 8.37217 -2.13147e-22)
(52.3686 8.21445 6.3175e-22)
(52.5296 8.00696 -3.04731e-19)
(52.6383 8.15976 -2.56789e-20)
(53.0186 8.10717 -6.33633e-21)
(53.0431 8.17331 -2.96688e-20)
(53.5203 8.11762 -1.1621e-19)
(53.3138 8.02181 -2.42875e-19)
(53.9726 8.11022 -1.93451e-20)
(53.5964 8.15237 -1.4772e-20)
(53.8613 8.43118 1.03932e-19)
(54.2677 8.0593 -2.33663e-19)
(54.6618 8.2866 -5.33486e-20)
(52.816 8.2331 -5.64008e-20)
(53.7927 8.30166 0)
(52.9565 8.24316 -4.48172e-20)
(53.9586 8.34564 5.05606e-19)
(53.1228 8.68701 -2.27427e-19)
(54.0187 8.54535 -4.20996e-19)
(53.0233 9.01787 4.15101e-19)
(53.5887 8.90075 -4.80477e-20)
(54.3882 8.80626 0)
(54.4034 8.76505 -7.01173e-21)
(54.4462 8.6786 -3.00814e-19)
(51.3082 9.04604 0)
(51.3075 9.04901 0)
(51.3077 9.04808 1.71607e-19)
(51.308 9.04823 1.03512e-19)
(51.3083 9.04825 9.63886e-20)
(51.3089 9.04783 -3.43361e-22)
(51.3097 9.04727 0)
(51.3109 9.04647 0)
(51.3128 9.04531 -1.04188e-19)
(51.3156 9.04324 6.52951e-22)
(51.3179 9.04023 -1.13248e-19)
(51.3215 9.03115 -5.71163e-23)
(51.3265 9.02368 -3.30606e-19)
(51.3341 9.01491 1.65026e-21)
(51.3514 8.9984 0)
(51.3697 8.98452 -1.59766e-21)
(51.3799 8.9672 1.70397e-23)
(51.3947 8.94306 -1.88474e-23)
(51.4663 8.91221 -5.72923e-23)
(51.5224 8.84198 4.2122e-22)
(51.5778 8.79369 -8.0254e-23)
(51.5926 8.71764 9.13191e-20)
(51.656 8.63573 -3.28154e-20)
(51.9165 8.48643 -7.82244e-22)
(52.0593 8.32412 -5.27936e-20)
(52.3769 8.15129 1.06689e-19)
(52.5725 8.0189 4.73233e-21)
(52.7424 7.88756 -2.16865e-19)
(52.792 8.06876 0)
(53.0911 7.97466 -2.43519e-19)
(53.4792 8.04037 9.06865e-20)
(53.4778 8.14753 8.17228e-21)
(53.9382 7.99339 -8.99265e-20)
(53.6393 7.87433 1.82128e-20)
(53.1202 8.29865 1.47739e-20)
(53.7277 8.19759 3.42288e-20)
(54.1405 8.11681 2.24646e-20)
(52.7205 8.00772 5.55721e-20)
(53.5735 8.24084 1.44723e-19)
(52.7849 8.50306 -3.66613e-19)
(53.7558 8.72075 -1.03081e-19)
(53.9854 8.21318 4.96742e-19)
(54.2557 8.63706 -5.7457e-21)
(53.7136 8.61066 -7.1005e-19)
(54.0383 8.83691 -2.56871e-19)
(54.5947 8.55485 -9.06711e-21)
(54.5262 8.65797 9.08776e-21)
(54.5492 8.52871 3.18582e-19)
(51.3085 9.04592 -1.51143e-19)
(51.3073 9.04895 2.63378e-23)
(51.3073 9.04849 -2.23982e-23)
(51.3079 9.04835 -3.10686e-19)
(51.3083 9.04819 9.59269e-20)
(51.3089 9.04776 -6.87887e-20)
(51.3097 9.04718 2.20724e-24)
(51.3109 9.04634 -6.78281e-24)
(51.3127 9.04514 -1.16911e-23)
(51.3156 9.04297 6.57438e-22)
(51.3166 9.03933 2.13289e-19)
(51.3207 9.03496 2.09594e-23)
(51.3269 9.02511 9.92302e-19)
(51.3338 9.01595 6.61641e-22)
(51.3468 9.00805 4.64609e-24)
(51.3761 8.97084 2.69502e-18)
(51.3977 8.93974 -1.01163e-18)
(51.4073 8.92317 0)
(51.4644 8.90499 -2.90481e-23)
(51.5155 8.8451 3.32732e-23)
(51.5776 8.77698 -8.89884e-20)
(51.6113 8.68026 1.68836e-21)
(51.6541 8.60803 5.15967e-20)
(51.9127 8.44676 -1.32069e-20)
(52.0596 8.25869 -7.75238e-20)
(52.3735 8.08806 -1.57624e-19)
(52.5433 7.98271 -1.91405e-19)
(52.7504 7.91143 -7.65843e-20)
(52.9382 7.69956 1.97941e-20)
(53.1635 7.91886 -4.76485e-20)
(53.488 7.95063 1.35939e-20)
(53.479 7.91392 1.74518e-20)
(53.9593 7.92401 8.89321e-20)
(53.3458 7.95346 1.2333e-20)
(53.4349 7.80713 2.21765e-19)
(53.7852 8.0069 -7.79582e-22)
(54.0562 7.74788 0)
(52.7195 7.94806 -6.37526e-20)
(53.4324 8.28713 0)
(53.4755 8.05838 -3.7813e-19)
(53.5684 8.54555 4.39904e-22)
(54.0484 8.37613 -1.19971e-19)
(54.5092 8.49068 1.87237e-19)
(54.0857 8.44565 2.23066e-19)
(53.9209 8.57239 5.80903e-21)
(54.2449 8.4202 -2.88769e-19)
(53.9514 8.4363 0)
(53.9747 8.41301 -3.33141e-19)
(51.3082 9.04592 6.59177e-19)
(51.3073 9.04897 0)
(51.3075 9.04844 -1.00934e-19)
(51.3078 9.04841 1.9955e-19)
(51.3083 9.04813 -9.59659e-20)
(51.3089 9.04768 6.8117e-20)
(51.3097 9.04708 1.13622e-23)
(51.3108 9.04621 -7.10442e-20)
(51.3127 9.04495 2.46323e-24)
(51.3155 9.04271 7.60262e-20)
(51.3165 9.03711 -4.73242e-19)
(51.322 9.02818 0)
(51.3283 9.02233 -9.20592e-19)
(51.3374 9.00756 -1.08985e-18)
(51.3544 8.99111 1.73753e-18)
(51.3689 8.98744 -3.18998e-19)
(51.3858 8.96332 -1.54182e-21)
(51.4143 8.91684 -1.50172e-23)
(51.4633 8.89629 1.8323e-23)
(51.518 8.83843 1.46555e-19)
(51.5715 8.76377 1.80203e-19)
(51.6024 8.65627 -1.10393e-19)
(51.7155 8.50389 7.65097e-19)
(51.905 8.41037 1.13536e-20)
(52.0496 8.21869 3.83991e-20)
(52.356 8.02727 3.72806e-22)
(52.5614 7.89589 9.46031e-20)
(52.7966 7.81675 -4.8055e-21)
(53.0725 7.75158 6.65695e-21)
(53.3193 7.80147 1.04451e-20)
(53.4699 7.86134 -1.30469e-20)
(53.7183 7.88427 0)
(53.9107 7.83022 1.14203e-19)
(53.3385 7.80617 1.24217e-19)
(53.4153 7.92592 0)
(53.9811 7.64848 1.10023e-19)
(53.8222 7.84093 -2.00501e-20)
(52.7134 7.98659 3.51021e-20)
(53.4031 8.23666 0)
(53.5715 8.25845 1.06091e-19)
(53.9596 8.09989 2.8457e-19)
(54.4683 7.96516 -3.46259e-22)
(54.4165 8.27712 2.32072e-20)
(54.1358 8.32134 0)
(53.9407 8.1783 -5.01138e-19)
(53.9203 8.27111 -2.43676e-19)
(53.0182 8.4319 1.31534e-19)
(52.7052 8.3584 -1.40733e-19)
(51.3074 9.04594 -2.30977e-19)
(51.3074 9.04894 0)
(51.3074 9.04839 2.02602e-19)
(51.3078 9.04835 -2.00638e-19)
(51.3083 9.04807 0)
(51.3089 9.04761 -3.49169e-22)
(51.3096 9.04698 -1.00103e-19)
(51.3108 9.04607 1.41508e-19)
(51.3127 9.04476 -9.03762e-24)
(51.3154 9.04243 -7.46382e-20)
(51.3164 9.03733 -1.02373e-22)
(51.323 9.03418 -2.69836e-23)
(51.3287 9.0265 5.59465e-23)
(51.3373 9.01853 0)
(51.3511 9.00538 -2.0739e-19)
(51.3706 8.98479 1.60263e-19)
(51.3887 8.9586 1.21078e-19)
(51.4117 8.92857 4.01835e-23)
(51.4613 8.88756 1.21588e-19)
(51.5175 8.82326 -2.97051e-19)
(51.5684 8.74712 -9.12087e-20)
(51.6477 8.57731 -6.02967e-22)
(51.6918 8.52074 -3.21154e-20)
(51.9014 8.36884 -1.11345e-20)
(52.0504 8.16648 -9.87374e-22)
(52.3552 7.95839 1.63904e-21)
(52.5421 7.82751 0)
(52.8639 7.70411 0)
(52.992 7.72389 1.0808e-19)
(53.2631 7.74612 8.05662e-20)
(53.4766 7.76032 -8.7925e-22)
(53.6137 7.82384 -7.03681e-22)
(53.8629 7.75973 2.43201e-20)
(53.3322 7.72854 -1.92487e-22)
(53.5392 7.85595 0)
(54.1021 7.83234 4.62191e-20)
(54.1232 7.43393 1.23948e-19)
(52.9574 7.92759 -5.63378e-20)
(53.4847 8.06616 0)
(53.5766 8.18996 -7.70376e-20)
(54.1153 7.89723 2.45585e-21)
(54.3501 7.88347 1.37083e-19)
(54.4204 7.92673 -2.51411e-20)
(54.4479 7.82688 8.45783e-21)
(54.4995 7.52403 4.56812e-20)
(53.1353 8.34584 6.94461e-21)
(52.4881 8.00679 0)
(51.8407 7.96462 -2.23761e-20)
(51.3078 9.04573 2.06581e-23)
(51.3071 9.04873 -4.3153e-23)
(51.3075 9.04833 -1.01646e-19)
(51.3078 9.0483 1.33971e-19)
(51.3083 9.048 0)
(51.3088 9.04752 -2.02756e-19)
(51.3096 9.04688 1.00142e-19)
(51.3108 9.04593 -6.47324e-22)
(51.3126 9.04455 -3.65309e-23)
(51.3153 9.04215 7.46582e-20)
(51.3172 9.03403 1.39428e-22)
(51.3224 9.03365 8.91183e-20)
(51.3285 9.02665 1.53003e-19)
(51.3367 9.01725 -1.32564e-19)
(51.3516 9.00321 2.10626e-19)
(51.3701 8.98139 1.65104e-19)
(51.3876 8.95428 1.48308e-23)
(51.4139 8.92324 -8.18365e-23)
(51.4591 8.87832 -1.21445e-19)
(51.513 8.81223 -4.18076e-21)
(51.5629 8.73086 2.20933e-23)
(51.6359 8.60873 3.73778e-23)
(51.6959 8.50001 3.40395e-20)
(51.8916 8.32791 0)
(52.0401 8.10866 -1.79706e-20)