/*--------------------------------*- C++ -*----------------------------------*\
  =========                 |
  \\      /  F ield         | OpenFOAM: The Open Source CFD Toolbox
   \\    /   O peration     | Website:  https://openfoam.org
    \\  /    A nd           | Version:  10
     \\/     M anipulation  |
\*---------------------------------------------------------------------------*/
FoamFile
{
    format      ascii;
    class       volScalarField;
    location    "10";
    object      nut;
}
// * * * * * * * * * * * * * * * * * * * * * * * * * * * * * * * * * * * * * //

dimensions      [0 2 -1 0 0 0 0];

internalField   nonuniform List<scalar> 
38016
(
1.83443e-06
1.83443e-06
1.83443e-06
1.83443e-06
1.83443e-06
1.83443e-06
1.83444e-06
1.83444e-06
1.83444e-06
1.83444e-06
1.83444e-06
1.83444e-06
1.83445e-06
1.83445e-06
1.83446e-06
1.83448e-06
1.83448e-06
1.83452e-06
1.83456e-06
1.83462e-06
1.8347e-06
1.83507e-06
1.83469e-06
1.83549e-06
1.83527e-06
1.83607e-06
1.83598e-06
1.83628e-06
1.83624e-06
1.83606e-06
1.83573e-06
1.83527e-06
1.83468e-06
1.835e-06
1.83588e-06
1.83695e-06
1.83823e-06
1.83968e-06
1.84129e-06
1.84303e-06
1.84484e-06
1.84662e-06
1.84842e-06
1.85007e-06
1.85206e-06
1.85344e-06
1.85634e-06
1.85761e-06
1.83443e-06
1.83443e-06
1.83443e-06
1.83443e-06
1.83443e-06
1.83443e-06
1.83444e-06
1.83444e-06
1.83444e-06
1.83444e-06
1.83444e-06
1.83444e-06
1.83445e-06
1.83446e-06
1.83446e-06
1.83448e-06
1.83448e-06
1.83452e-06
1.83456e-06
1.83462e-06
1.8347e-06
1.83503e-06
1.83473e-06
1.8354e-06
1.83526e-06
1.83596e-06
1.83592e-06
1.83619e-06
1.83617e-06
1.83602e-06
1.83573e-06
1.83532e-06
1.83478e-06
1.83485e-06
1.8356e-06
1.83655e-06
1.83766e-06
1.83891e-06
1.84027e-06
1.84169e-06
1.8431e-06
1.84442e-06
1.84569e-06
1.84674e-06
1.84811e-06
1.8489e-06
1.85094e-06
1.8518e-06
1.83443e-06
1.83443e-06
1.83443e-06
1.83443e-06
1.83443e-06
1.83443e-06
1.83444e-06
1.83444e-06
1.83444e-06
1.83444e-06
1.83444e-06
1.83444e-06
1.83445e-06
1.83446e-06
1.83446e-06
1.83448e-06
1.83449e-06
1.83453e-06
1.83457e-06
1.83463e-06
1.83472e-06
1.83502e-06
1.83479e-06
1.83542e-06
1.83535e-06
1.836e-06
1.836e-06
1.83624e-06
1.83622e-06
1.83607e-06
1.83579e-06
1.8354e-06
1.83489e-06
1.83473e-06
1.83535e-06
1.83618e-06
1.83713e-06
1.83818e-06
1.83928e-06
1.84038e-06
1.8414e-06
1.84229e-06
1.84307e-06
1.84362e-06
1.84443e-06
1.84481e-06
1.84624e-06
1.84674e-06
1.83443e-06
1.83443e-06
1.83443e-06
1.83443e-06
1.83443e-06
1.83443e-06
1.83444e-06
1.83444e-06
1.83444e-06
1.83444e-06
1.83444e-06
1.83444e-06
1.83445e-06
1.83446e-06
1.83446e-06
1.83449e-06
1.83449e-06
1.83453e-06
1.83458e-06
1.83464e-06
1.83473e-06
1.83501e-06
1.83484e-06
1.83541e-06
1.83541e-06
1.83603e-06
1.83607e-06
1.8363e-06
1.83629e-06
1.83615e-06
1.83588e-06
1.8355e-06
1.835e-06
1.83467e-06
1.83517e-06
1.83591e-06
1.83677e-06
1.83768e-06
1.83861e-06
1.83949e-06
1.84025e-06
1.84084e-06
1.84128e-06
1.84151e-06
1.84197e-06
1.84213e-06
1.84324e-06
1.84354e-06
1.83443e-06
1.83443e-06
1.83443e-06
1.83443e-06
1.83443e-06
1.83443e-06
1.83444e-06
1.83444e-06
1.83444e-06
1.83444e-06
1.83444e-06
1.83445e-06
1.83445e-06
1.83446e-06
1.83447e-06
1.83449e-06
1.8345e-06
1.83454e-06
1.83459e-06
1.83466e-06
1.83475e-06
1.83502e-06
1.83491e-06
1.83544e-06
1.83551e-06
1.83611e-06
1.8362e-06
1.83642e-06
1.83641e-06
1.83627e-06
1.836e-06
1.83562e-06
1.83513e-06
1.83468e-06
1.83503e-06
1.8357e-06
1.83648e-06
1.83729e-06
1.83808e-06
1.83878e-06
1.83933e-06
1.83967e-06
1.83987e-06
1.83988e-06
1.84012e-06
1.84015e-06
1.84106e-06
1.84126e-06
1.83443e-06
1.83443e-06
1.83443e-06
1.83443e-06
1.83443e-06
1.83444e-06
1.83444e-06
1.83444e-06
1.83444e-06
1.83444e-06
1.83444e-06
1.83445e-06
1.83445e-06
1.83446e-06
1.83447e-06
1.83449e-06
1.83451e-06
1.83455e-06
1.8346e-06
1.83468e-06
1.83477e-06
1.83503e-06
1.83498e-06
1.83548e-06
1.83562e-06
1.8362e-06
1.83634e-06
1.83655e-06
1.83655e-06
1.83641e-06
1.83613e-06
1.83575e-06
1.83527e-06
1.83477e-06
1.83491e-06
1.8355e-06
1.83619e-06
1.8369e-06
1.83755e-06
1.83809e-06
1.83845e-06
1.83859e-06
1.83861e-06
1.8385e-06
1.83861e-06
1.83858e-06
1.83927e-06
1.83938e-06
1.83443e-06
1.83443e-06
1.83443e-06
1.83443e-06
1.83443e-06
1.83444e-06
1.83444e-06
1.83444e-06
1.83444e-06
1.83444e-06
1.83444e-06
1.83445e-06
1.83445e-06
1.83447e-06
1.83447e-06
1.8345e-06
1.83451e-06
1.83456e-06
1.83462e-06
1.8347e-06
1.8348e-06
1.83504e-06
1.83505e-06
1.83552e-06
1.83573e-06
1.8363e-06
1.83649e-06
1.83669e-06
1.8367e-06
1.83656e-06
1.83628e-06
1.8359e-06
1.83542e-06
1.83492e-06
1.83482e-06
1.8353e-06
1.83589e-06
1.83649e-06
1.83701e-06
1.83738e-06
1.83758e-06
1.83757e-06
1.83751e-06
1.83738e-06
1.83747e-06
1.83748e-06
1.83786e-06
1.83782e-06
1.83443e-06
1.83443e-06
1.83443e-06
1.83443e-06
1.83443e-06
1.83444e-06
1.83444e-06
1.83444e-06
1.83444e-06
1.83444e-06
1.83444e-06
1.83445e-06
1.83446e-06
1.83447e-06
1.83448e-06
1.8345e-06
1.83452e-06
1.83457e-06
1.83463e-06
1.83472e-06
1.83483e-06
1.83506e-06
1.83512e-06
1.83558e-06
1.83584e-06
1.83641e-06
1.83664e-06
1.83684e-06
1.83685e-06
1.83671e-06
1.83643e-06
1.83606e-06
1.83559e-06
1.83509e-06
1.83479e-06
1.83511e-06
1.8356e-06
1.83608e-06
1.83647e-06
1.83671e-06
1.8368e-06
1.83672e-06
1.83673e-06
1.83677e-06
1.83695e-06
1.83717e-06
1.83703e-06
1.83664e-06
1.83443e-06
1.83443e-06
1.83443e-06
1.83443e-06
1.83443e-06
1.83444e-06
1.83444e-06
1.83444e-06
1.83444e-06
1.83444e-06
1.83444e-06
1.83445e-06
1.83446e-06
1.83447e-06
1.83448e-06
1.83451e-06
1.83453e-06
1.83458e-06
1.83465e-06
1.83474e-06
1.83486e-06
1.83509e-06
1.83519e-06
1.83564e-06
1.83596e-06
1.83653e-06
1.83679e-06
1.837e-06
1.83702e-06
1.83688e-06
1.8366e-06
1.83624e-06
1.83577e-06
1.8353e-06
1.83488e-06
1.83499e-06
1.83534e-06
1.83571e-06
1.836e-06
1.83615e-06
1.83622e-06
1.83622e-06
1.83651e-06
1.83699e-06
1.83746e-06
1.83784e-06
1.8372e-06
1.83595e-06
1.83443e-06
1.83443e-06
1.83443e-06
1.83443e-06
1.83444e-06
1.83444e-06
1.83444e-06
1.83444e-06
1.83444e-06
1.83444e-06
1.83445e-06
1.83445e-06
1.83446e-06
1.83447e-06
1.83449e-06
1.83451e-06
1.83454e-06
1.83459e-06
1.83466e-06
1.83476e-06
1.83489e-06
1.83512e-06
1.83526e-06
1.83571e-06
1.83608e-06
1.83665e-06
1.83696e-06
1.83717e-06
1.83719e-06
1.83706e-06
1.83679e-06
1.83642e-06
1.83597e-06
1.83553e-06
1.8351e-06
1.83498e-06
1.83518e-06
1.83544e-06
1.83568e-06
1.83581e-06
1.83599e-06
1.83633e-06
1.83707e-06
1.83795e-06
1.83865e-06
1.83906e-06
1.83804e-06
1.83598e-06
1.83443e-06
1.83443e-06
1.83443e-06
1.83443e-06
1.83444e-06
1.83444e-06
1.83444e-06
1.83444e-06
1.83444e-06
1.83444e-06
1.83445e-06
1.83445e-06
1.83446e-06
1.83448e-06
1.83449e-06
1.83452e-06
1.83455e-06
1.83461e-06
1.83468e-06
1.83479e-06
1.83493e-06
1.83516e-06
1.83534e-06
1.83578e-06
1.8362e-06
1.83679e-06
1.83713e-06
1.83735e-06
1.83738e-06
1.83725e-06
1.83698e-06
1.83663e-06
1.8362e-06
1.83579e-06
1.83538e-06
1.83517e-06
1.83521e-06
1.83538e-06
1.83562e-06
1.83588e-06
1.83635e-06
1.83704e-06
1.8381e-06
1.83925e-06
1.8401e-06
1.84047e-06
1.83919e-06
1.83643e-06
1.83443e-06
1.83443e-06
1.83443e-06
1.83443e-06
1.83444e-06
1.83444e-06
1.83444e-06
1.83444e-06
1.83444e-06
1.83444e-06
1.83445e-06
1.83445e-06
1.83446e-06
1.83448e-06
1.8345e-06
1.83453e-06
1.83456e-06
1.83462e-06
1.8347e-06
1.83482e-06
1.83496e-06
1.8352e-06
1.83542e-06
1.83587e-06
1.83633e-06
1.83693e-06
1.83731e-06
1.83754e-06
1.83757e-06
1.83745e-06
1.83718e-06
1.83685e-06
1.83644e-06
1.83606e-06
1.8357e-06
1.8355e-06
1.83549e-06
1.83565e-06
1.83595e-06
1.83638e-06
1.83707e-06
1.83804e-06
1.83932e-06
1.84067e-06
1.84163e-06
1.84193e-06
1.84042e-06
1.83687e-06
1.83443e-06
1.83443e-06
1.83443e-06
1.83443e-06
1.83444e-06
1.83444e-06
1.83444e-06
1.83444e-06
1.83444e-06
1.83444e-06
1.83445e-06
1.83446e-06
1.83447e-06
1.83448e-06
1.8345e-06
1.83454e-06
1.83457e-06
1.83464e-06
1.83473e-06
1.83485e-06
1.835e-06
1.83525e-06
1.8355e-06
1.83596e-06
1.83647e-06
1.83708e-06
1.8375e-06
1.83774e-06
1.83778e-06
1.83766e-06
1.8374e-06
1.83708e-06
1.83669e-06
1.83636e-06
1.83606e-06
1.8359e-06
1.83592e-06
1.83613e-06
1.83651e-06
1.83709e-06
1.83795e-06
1.83913e-06
1.84059e-06
1.84212e-06
1.84317e-06
1.84341e-06
1.84162e-06
1.83714e-06
1.83443e-06
1.83443e-06
1.83444e-06
1.83443e-06
1.83444e-06
1.83444e-06
1.83444e-06
1.83444e-06
1.83444e-06
1.83444e-06
1.83445e-06
1.83446e-06
1.83447e-06
1.83449e-06
1.83451e-06
1.83454e-06
1.83458e-06
1.83465e-06
1.83475e-06
1.83488e-06
1.83505e-06
1.8353e-06
1.83559e-06
1.83605e-06
1.83661e-06
1.83724e-06
1.83769e-06
1.83794e-06
1.838e-06
1.83788e-06
1.83763e-06
1.83732e-06
1.83697e-06
1.83668e-06
1.83644e-06
1.83634e-06
1.83642e-06
1.83669e-06
1.83716e-06
1.83786e-06
1.83888e-06
1.84025e-06
1.8419e-06
1.84358e-06
1.84472e-06
1.84488e-06
1.84275e-06
1.83728e-06
1.83443e-06
1.83443e-06
1.83444e-06
1.83443e-06
1.83444e-06
1.83444e-06
1.83444e-06
1.83444e-06
1.83444e-06
1.83444e-06
1.83445e-06
1.83446e-06
1.83447e-06
1.83449e-06
1.83451e-06
1.83455e-06
1.8346e-06
1.83467e-06
1.83477e-06
1.83492e-06
1.8351e-06
1.83535e-06
1.83568e-06
1.83616e-06
1.83675e-06
1.83741e-06
1.83789e-06
1.83815e-06
1.83822e-06
1.83811e-06
1.83787e-06
1.83758e-06
1.83726e-06
1.83702e-06
1.83685e-06
1.83681e-06
1.83695e-06
1.8373e-06
1.83785e-06
1.83867e-06
1.83985e-06
1.84138e-06
1.84322e-06
1.84504e-06
1.84626e-06
1.84629e-06
1.84386e-06
1.83739e-06
1.83443e-06
1.83443e-06
1.83444e-06
1.83444e-06
1.83444e-06
1.83444e-06
1.83444e-06
1.83444e-06
1.83444e-06
1.83445e-06
1.83445e-06
1.83446e-06
1.83447e-06
1.83449e-06
1.83452e-06
1.83456e-06
1.83461e-06
1.83469e-06
1.8348e-06
1.83496e-06
1.83515e-06
1.83542e-06
1.83577e-06
1.83626e-06
1.8369e-06
1.83759e-06
1.83809e-06
1.83837e-06
1.83845e-06
1.83835e-06
1.83812e-06
1.83785e-06
1.83756e-06
1.83737e-06
1.83726e-06
1.83729e-06
1.8375e-06
1.83792e-06
1.83855e-06
1.83949e-06
1.84082e-06
1.84253e-06
1.84453e-06
1.84651e-06
1.84781e-06
1.84767e-06
1.84498e-06
1.83744e-06
1.83443e-06
1.83443e-06
1.83444e-06
1.83444e-06
1.83444e-06
1.83444e-06
1.83444e-06
1.83444e-06
1.83444e-06
1.83445e-06
1.83445e-06
1.83446e-06
1.83448e-06
1.8345e-06
1.83452e-06
1.83457e-06
1.83463e-06
1.83471e-06
1.83483e-06
1.835e-06
1.8352e-06
1.83548e-06
1.83587e-06
1.83638e-06
1.83705e-06
1.83777e-06
1.8383e-06
1.8386e-06
1.83869e-06
1.8386e-06
1.83838e-06
1.83813e-06
1.83788e-06
1.83773e-06
1.83768e-06
1.83777e-06
1.83806e-06
1.83854e-06
1.83926e-06
1.84033e-06
1.8418e-06
1.84368e-06
1.84584e-06
1.84801e-06
1.84935e-06
1.8491e-06
1.84609e-06
1.83737e-06
1.83443e-06
1.83443e-06
1.83444e-06
1.83444e-06
1.83444e-06
1.83444e-06
1.83444e-06
1.83444e-06
1.83444e-06
1.83445e-06
1.83445e-06
1.83446e-06
1.83448e-06
1.8345e-06
1.83453e-06
1.83458e-06
1.83464e-06
1.83474e-06
1.83486e-06
1.83504e-06
1.83526e-06
1.83555e-06
1.83596e-06
1.83649e-06
1.83721e-06
1.83795e-06
1.83851e-06
1.83883e-06
1.83893e-06
1.83885e-06
1.83864e-06
1.83842e-06
1.83821e-06
1.8381e-06
1.8381e-06
1.83826e-06
1.83861e-06
1.83916e-06
1.83997e-06
1.84115e-06
1.84276e-06
1.84484e-06
1.84717e-06
1.84954e-06
1.85094e-06
1.85056e-06
1.8472e-06
1.83718e-06
1.83443e-06
1.83443e-06
1.83444e-06
1.83444e-06
1.83444e-06
1.83444e-06
1.83444e-06
1.83444e-06
1.83444e-06
1.83445e-06
1.83445e-06
1.83447e-06
1.83448e-06
1.83451e-06
1.83454e-06
1.83459e-06
1.83466e-06
1.83476e-06
1.8349e-06
1.83508e-06
1.83532e-06
1.83563e-06
1.83607e-06
1.83662e-06
1.83737e-06
1.83814e-06
1.83873e-06
1.83906e-06
1.83917e-06
1.83911e-06
1.83892e-06
1.83872e-06
1.83854e-06
1.83847e-06
1.83853e-06
1.83874e-06
1.83914e-06
1.83976e-06
1.84066e-06
1.84197e-06
1.84373e-06
1.846e-06
1.84854e-06
1.8511e-06
1.85259e-06
1.85208e-06
1.84832e-06
1.8369e-06
1.83444e-06
1.83443e-06
1.83444e-06
1.83444e-06
1.83444e-06
1.83444e-06
1.83444e-06
1.83444e-06
1.83444e-06
1.83445e-06
1.83446e-06
1.83447e-06
1.83449e-06
1.83451e-06
1.83455e-06
1.8346e-06
1.83468e-06
1.83479e-06
1.83493e-06
1.83513e-06
1.83538e-06
1.83571e-06
1.83617e-06
1.83674e-06
1.83753e-06
1.83833e-06
1.83894e-06
1.8393e-06
1.83942e-06
1.83936e-06
1.83919e-06
1.83902e-06
1.83888e-06
1.83885e-06
1.83894e-06
1.83921e-06
1.83967e-06
1.84035e-06
1.84134e-06
1.84278e-06
1.8447e-06
1.84716e-06
1.84997e-06
1.85267e-06
1.85432e-06
1.85364e-06
1.84941e-06
1.83658e-06
1.83444e-06
1.83443e-06
1.83444e-06
1.83444e-06
1.83444e-06
1.83444e-06
1.83444e-06
1.83444e-06
1.83444e-06
1.83445e-06
1.83446e-06
1.83447e-06
1.83449e-06
1.83452e-06
1.83456e-06
1.83462e-06
1.8347e-06
1.83481e-06
1.83497e-06
1.83518e-06
1.83545e-06
1.83579e-06
1.83628e-06
1.83687e-06
1.83769e-06
1.83851e-06
1.83915e-06
1.83953e-06
1.83966e-06
1.83962e-06
1.83947e-06
1.83932e-06
1.83921e-06
1.83922e-06
1.83935e-06
1.83966e-06
1.84017e-06
1.84091e-06
1.84201e-06
1.84357e-06
1.8457e-06
1.84832e-06
1.85147e-06
1.85426e-06
1.85617e-06
1.85522e-06
1.85045e-06
1.83627e-06
1.83444e-06
1.83443e-06
1.83444e-06
1.83444e-06
1.83444e-06
1.83444e-06
1.83444e-06
1.83444e-06
1.83445e-06
1.83445e-06
1.83446e-06
1.83447e-06
1.83449e-06
1.83452e-06
1.83457e-06
1.83463e-06
1.83472e-06
1.83484e-06
1.83501e-06
1.83524e-06
1.83552e-06
1.83588e-06
1.83639e-06
1.837e-06
1.83785e-06
1.8387e-06
1.83936e-06
1.83975e-06
1.8399e-06
1.83987e-06
1.83974e-06
1.83961e-06
1.83954e-06
1.83957e-06
1.83975e-06
1.8401e-06
1.84065e-06
1.84147e-06
1.84268e-06
1.84437e-06
1.84671e-06
1.84951e-06
1.85303e-06
1.85587e-06
1.85811e-06
1.85678e-06
1.85144e-06
1.83599e-06
1.83444e-06
1.83443e-06
1.83444e-06
1.83444e-06
1.83444e-06
1.83444e-06
1.83444e-06
1.83444e-06
1.83445e-06
1.83445e-06
1.83446e-06
1.83448e-06
1.8345e-06
1.83453e-06
1.83458e-06
1.83465e-06
1.83474e-06
1.83487e-06
1.83505e-06
1.83529e-06
1.83559e-06
1.83596e-06
1.8365e-06
1.83713e-06
1.83801e-06
1.83888e-06
1.83956e-06
1.83997e-06
1.84013e-06
1.84012e-06
1.84e-06
1.8399e-06
1.83985e-06
1.83992e-06
1.84012e-06
1.84051e-06
1.84111e-06
1.842e-06
1.84334e-06
1.84516e-06
1.84775e-06
1.85074e-06
1.85462e-06
1.85756e-06
1.86009e-06
1.85829e-06
1.85241e-06
1.83576e-06
1.83444e-06
1.83443e-06
1.83444e-06
1.83444e-06
1.83444e-06
1.83444e-06
1.83444e-06
1.83444e-06
1.83445e-06
1.83445e-06
1.83446e-06
1.83448e-06
1.8345e-06
1.83454e-06
1.83459e-06
1.83466e-06
1.83476e-06
1.8349e-06
1.83509e-06
1.83535e-06
1.83566e-06
1.83605e-06
1.83661e-06
1.83726e-06
1.83816e-06
1.83905e-06
1.83975e-06
1.84018e-06
1.84035e-06
1.84035e-06
1.84026e-06
1.84017e-06
1.84015e-06
1.84024e-06
1.84047e-06
1.8409e-06
1.84155e-06
1.84252e-06
1.84398e-06
1.84597e-06
1.84878e-06
1.85205e-06
1.85622e-06
1.85937e-06
1.86208e-06
1.85985e-06
1.85353e-06
1.83559e-06
1.83444e-06
1.83443e-06
1.83444e-06
1.83444e-06
1.83444e-06
1.83444e-06
1.83444e-06
1.83444e-06
1.83445e-06
1.83445e-06
1.83446e-06
1.83448e-06
1.8345e-06
1.83454e-06
1.8346e-06
1.83468e-06
1.83478e-06
1.83493e-06
1.83513e-06
1.8354e-06
1.83573e-06
1.83615e-06
1.83672e-06
1.83739e-06
1.8383e-06
1.83922e-06
1.83993e-06
1.84037e-06
1.84055e-06
1.84057e-06
1.84049e-06
1.84043e-06
1.84042e-06
1.84053e-06
1.8408e-06
1.84126e-06
1.84196e-06
1.84302e-06
1.84461e-06
1.84679e-06
1.84982e-06
1.85342e-06
1.85785e-06
1.86135e-06
1.86406e-06
1.86168e-06
1.85488e-06
1.8352e-06
1.83444e-06
1.83443e-06
1.83444e-06
1.83444e-06
1.83444e-06
1.83444e-06
1.83444e-06
1.83444e-06
1.83445e-06
1.83445e-06
1.83447e-06
1.83448e-06
1.83451e-06
1.83455e-06
1.83461e-06
1.83469e-06
1.83481e-06
1.83497e-06
1.83518e-06
1.83546e-06
1.83581e-06
1.83624e-06
1.83683e-06
1.83751e-06
1.83844e-06
1.83936e-06
1.84009e-06
1.84054e-06
1.84073e-06
1.84077e-06
1.8407e-06
1.84066e-06
1.84067e-06
1.8408e-06
1.84109e-06
1.84158e-06
1.84234e-06
1.8435e-06
1.84522e-06
1.84761e-06
1.85088e-06
1.85484e-06
1.85954e-06
1.86344e-06
1.86611e-06
1.8638e-06
1.85646e-06
1.83458e-06
1.83444e-06
1.83443e-06
1.83444e-06
1.83444e-06
1.83444e-06
1.83444e-06
1.83444e-06
1.83444e-06
1.83445e-06
1.83446e-06
1.83447e-06
1.83449e-06
1.83451e-06
1.83456e-06
1.83462e-06
1.83471e-06
1.83483e-06
1.835e-06
1.83522e-06
1.83552e-06
1.83588e-06
1.83632e-06
1.83693e-06
1.83763e-06
1.83856e-06
1.8395e-06
1.84023e-06
1.84069e-06
1.84089e-06
1.84094e-06
1.84089e-06
1.84086e-06
1.84088e-06
1.84103e-06
1.84134e-06
1.84187e-06
1.84269e-06
1.84396e-06
1.84583e-06
1.84844e-06
1.85197e-06
1.85629e-06
1.86133e-06
1.86563e-06
1.86826e-06
1.86623e-06
1.85823e-06
1.83362e-06
1.83444e-06
1.83443e-06
1.83444e-06
1.83444e-06
1.83444e-06
1.83444e-06
1.83444e-06
1.83444e-06
1.83445e-06
1.83446e-06
1.83447e-06
1.83449e-06
1.83452e-06
1.83456e-06
1.83463e-06
1.83472e-06
1.83486e-06
1.83503e-06
1.83527e-06
1.83558e-06
1.83595e-06
1.83641e-06
1.83703e-06
1.83773e-06
1.83866e-06
1.83961e-06
1.84034e-06
1.84081e-06
1.84102e-06
1.84108e-06
1.84104e-06
1.84102e-06
1.84106e-06
1.84122e-06
1.84156e-06
1.84212e-06
1.84301e-06
1.84439e-06
1.84642e-06
1.84925e-06
1.85311e-06
1.85777e-06
1.86323e-06
1.86784e-06
1.87054e-06
1.86861e-06
1.85978e-06
1.83337e-06
1.83444e-06
1.83443e-06
1.83444e-06
1.83444e-06
1.83444e-06
1.83444e-06
1.83444e-06
1.83444e-06
1.83445e-06
1.83446e-06
1.83447e-06
1.83449e-06
1.83452e-06
1.83457e-06
1.83464e-06
1.83474e-06
1.83488e-06
1.83507e-06
1.83531e-06
1.83564e-06
1.83602e-06
1.83649e-06
1.83712e-06
1.83783e-06
1.83875e-06
1.8397e-06
1.84043e-06
1.8409e-06
1.84111e-06
1.84118e-06
1.84115e-06
1.84114e-06
1.84119e-06
1.84137e-06
1.84173e-06
1.84234e-06
1.8433e-06
1.84479e-06
1.84701e-06
1.85006e-06
1.85428e-06
1.85927e-06
1.86521e-06
1.87003e-06
1.87295e-06
1.87055e-06
1.86096e-06
1.83388e-06
1.83444e-06
1.83444e-06
1.83444e-06
1.83444e-06
1.83444e-06
1.83444e-06
1.83444e-06
1.83444e-06
1.83445e-06
1.83446e-06
1.83447e-06
1.83449e-06
1.83453e-06
1.83458e-06
1.83465e-06
1.83476e-06
1.8349e-06
1.8351e-06
1.83536e-06
1.8357e-06
1.83609e-06
1.83657e-06
1.8372e-06
1.83791e-06
1.83882e-06
1.83976e-06
1.84048e-06
1.84096e-06
1.84117e-06
1.84124e-06
1.84122e-06
1.84122e-06
1.84128e-06
1.84147e-06
1.84186e-06
1.84251e-06
1.84356e-06
1.84517e-06
1.84758e-06
1.85088e-06
1.85547e-06
1.86082e-06
1.86724e-06
1.87221e-06
1.87544e-06
1.87213e-06
1.86184e-06
1.83487e-06
1.83444e-06
1.83444e-06
1.83444e-06
1.83444e-06
1.83444e-06
1.83444e-06
1.83444e-06
1.83445e-06
1.83445e-06
1.83446e-06
1.83447e-06
1.8345e-06
1.83453e-06
1.83458e-06
1.83466e-06
1.83477e-06
1.83493e-06
1.83513e-06
1.8354e-06
1.83575e-06
1.83615e-06
1.83664e-06
1.83727e-06
1.83797e-06
1.83887e-06
1.83979e-06
1.8405e-06
1.84097e-06
1.84118e-06
1.84126e-06
1.84124e-06
1.84124e-06
1.84131e-06
1.84152e-06
1.84194e-06
1.84265e-06
1.84379e-06
1.84553e-06
1.84815e-06
1.85171e-06
1.8567e-06
1.86241e-06
1.86933e-06
1.87437e-06
1.87797e-06
1.87351e-06
1.86243e-06
1.83517e-06
1.83444e-06
1.83444e-06
1.83444e-06
1.83444e-06
1.83444e-06
1.83444e-06
1.83444e-06
1.83445e-06
1.83445e-06
1.83446e-06
1.83448e-06
1.8345e-06
1.83454e-06
1.83459e-06
1.83467e-06
1.83479e-06
1.83495e-06
1.83516e-06
1.83544e-06
1.8358e-06
1.83621e-06
1.83671e-06
1.83732e-06
1.83802e-06
1.83889e-06
1.83979e-06
1.84048e-06
1.84094e-06
1.84114e-06
1.84122e-06
1.84121e-06
1.84121e-06
1.84129e-06
1.84151e-06
1.84197e-06
1.84274e-06
1.84399e-06
1.84586e-06
1.84873e-06
1.85255e-06
1.85797e-06
1.86405e-06
1.8715e-06
1.87652e-06
1.88063e-06
1.87469e-06
1.86289e-06
1.83496e-06
1.83444e-06
1.83444e-06
1.83444e-06
1.83444e-06
1.83444e-06
1.83444e-06
1.83444e-06
1.83445e-06
1.83445e-06
1.83446e-06
1.83448e-06
1.8345e-06
1.83454e-06
1.8346e-06
1.83468e-06
1.8348e-06
1.83497e-06
1.83519e-06
1.83548e-06
1.83585e-06
1.83626e-06
1.83676e-06
1.83737e-06
1.83805e-06
1.83888e-06
1.83976e-06
1.84042e-06
1.84086e-06
1.84105e-06
1.84113e-06
1.84112e-06
1.84113e-06
1.84121e-06
1.84145e-06
1.84196e-06
1.8428e-06
1.84416e-06
1.84617e-06
1.84931e-06
1.8534e-06
1.8593e-06
1.86574e-06
1.87373e-06
1.87882e-06
1.88321e-06
1.87647e-06
1.86378e-06
1.83603e-06
1.83444e-06
1.83444e-06
1.83444e-06
1.83444e-06
1.83444e-06
1.83444e-06
1.83444e-06
1.83445e-06
1.83445e-06
1.83446e-06
1.83448e-06
1.83451e-06
1.83454e-06
1.8346e-06
1.83469e-06
1.83482e-06
1.83499e-06
1.83522e-06
1.83551e-06
1.83589e-06
1.83631e-06
1.83681e-06
1.8374e-06
1.83806e-06
1.83884e-06
1.83968e-06
1.84031e-06
1.84073e-06
1.84091e-06
1.84098e-06
1.84096e-06
1.84097e-06
1.84106e-06
1.84133e-06
1.84189e-06
1.8428e-06
1.84429e-06
1.84647e-06
1.8499e-06
1.85427e-06
1.86069e-06
1.86747e-06
1.87607e-06
1.8812e-06
1.88578e-06
1.87862e-06
1.86469e-06
1.83759e-06
1.83444e-06
1.83444e-06
1.83444e-06
1.83444e-06
1.83444e-06
1.83444e-06
1.83444e-06
1.83445e-06
1.83445e-06
1.83446e-06
1.83448e-06
1.83451e-06
1.83455e-06
1.83461e-06
1.8347e-06
1.83483e-06
1.83501e-06
1.83524e-06
1.83554e-06
1.83592e-06
1.83634e-06
1.83684e-06
1.83741e-06
1.83804e-06
1.83878e-06
1.83957e-06
1.84016e-06
1.84055e-06
1.84071e-06
1.84076e-06
1.84074e-06
1.84076e-06
1.84086e-06
1.84115e-06
1.84177e-06
1.84276e-06
1.8444e-06
1.84674e-06
1.85051e-06
1.85515e-06
1.86219e-06
1.8692e-06
1.87861e-06
1.8836e-06
1.88847e-06
1.88153e-06
1.86567e-06
1.84041e-06
1.83444e-06
1.83444e-06
1.83444e-06
1.83444e-06
1.83444e-06
1.83444e-06
1.83444e-06
1.83445e-06
1.83445e-06
1.83447e-06
1.83448e-06
1.83451e-06
1.83455e-06
1.83462e-06
1.83471e-06
1.83484e-06
1.83503e-06
1.83526e-06
1.83556e-06
1.83595e-06
1.83637e-06
1.83686e-06
1.83741e-06
1.838e-06
1.83868e-06
1.83941e-06
1.83995e-06
1.8403e-06
1.84044e-06
1.84047e-06
1.84046e-06
1.84047e-06
1.84058e-06
1.84091e-06
1.8416e-06
1.84268e-06
1.84448e-06
1.84699e-06
1.85114e-06
1.85602e-06
1.86379e-06
1.87094e-06
1.88138e-06
1.88599e-06
1.89139e-06
1.88473e-06
1.86619e-06
1.84313e-06
1.83444e-06
1.83444e-06
1.83444e-06
1.83444e-06
1.83444e-06
1.83444e-06
1.83444e-06
1.83445e-06
1.83446e-06
1.83447e-06
1.83448e-06
1.83451e-06
1.83456e-06
1.83462e-06
1.83472e-06
1.83485e-06
1.83504e-06
1.83528e-06
1.83558e-06
1.83597e-06
1.83638e-06
1.83686e-06
1.83739e-06
1.83794e-06
1.83854e-06
1.83922e-06
1.8397e-06
1.84e-06
1.84012e-06
1.84012e-06
1.8401e-06
1.84012e-06
1.84024e-06
1.84061e-06
1.84137e-06
1.84254e-06
1.84453e-06
1.84723e-06
1.85178e-06
1.85695e-06
1.86547e-06
1.87284e-06
1.88428e-06
1.88854e-06
1.8945e-06
1.88782e-06
1.86665e-06
1.84526e-06
1.83444e-06
1.83444e-06
1.83444e-06
1.83444e-06
1.83444e-06
1.83444e-06
1.83444e-06
1.83445e-06
1.83446e-06
1.83447e-06
1.83449e-06
1.83451e-06
1.83456e-06
1.83463e-06
1.83472e-06
1.83486e-06
1.83505e-06
1.83529e-06
1.83559e-06
1.83598e-06
1.83639e-06
1.83685e-06
1.83735e-06
1.83785e-06
1.83838e-06
1.83898e-06
1.83939e-06
1.83965e-06
1.83972e-06
1.8397e-06
1.83968e-06
1.83969e-06
1.83983e-06
1.84025e-06
1.84108e-06
1.84235e-06
1.84454e-06
1.84746e-06
1.85241e-06
1.85798e-06
1.86718e-06
1.87501e-06
1.8872e-06
1.89158e-06
1.89764e-06
1.89115e-06
1.86806e-06
1.84736e-06
1.83444e-06
1.83444e-06
1.83444e-06
1.83444e-06
1.83444e-06
1.83444e-06
1.83444e-06
1.83445e-06
1.83446e-06
1.83447e-06
1.83449e-06
1.83452e-06
1.83456e-06
1.83463e-06
1.83473e-06
1.83486e-06
1.83506e-06
1.83529e-06
1.8356e-06
1.83598e-06
1.83638e-06
1.83683e-06
1.83729e-06
1.83774e-06
1.83818e-06
1.8387e-06
1.83904e-06
1.83923e-06
1.83927e-06
1.83922e-06
1.83918e-06
1.8392e-06
1.83936e-06
1.83982e-06
1.84073e-06
1.84212e-06
1.84449e-06
1.84771e-06
1.85301e-06
1.85914e-06
1.86885e-06
1.87754e-06
1.88999e-06
1.89526e-06
1.9005e-06
1.89456e-06
1.87057e-06
1.84909e-06
1.83444e-06
1.83444e-06
1.83444e-06
1.83444e-06
1.83444e-06
1.83444e-06
1.83444e-06
1.83445e-06
1.83446e-06
1.83447e-06
1.83449e-06
1.83452e-06
1.83456e-06
1.83463e-06
1.83473e-06
1.83487e-06
1.83506e-06
1.8353e-06
1.8356e-06
1.83597e-06
1.83636e-06
1.83679e-06
1.83721e-06
1.8376e-06
1.83795e-06
1.83838e-06
1.83863e-06
1.83875e-06
1.83876e-06
1.83867e-06
1.83862e-06
1.83864e-06
1.83882e-06
1.83934e-06
1.84032e-06
1.84184e-06
1.8444e-06
1.84797e-06
1.85356e-06
1.86044e-06
1.87045e-06
1.88037e-06
1.89256e-06
1.89932e-06
1.903e-06
1.89722e-06
1.87368e-06
1.85013e-06
1.83444e-06
1.83444e-06
1.83444e-06
1.83444e-06
1.83444e-06
1.83444e-06
1.83444e-06
1.83445e-06
1.83446e-06
1.83447e-06
1.83449e-06
1.83452e-06
1.83456e-06
1.83463e-06
1.83473e-06
1.83487e-06
1.83506e-06
1.83529e-06
1.83559e-06
1.83596e-06
1.83633e-06
1.83673e-06
1.83711e-06
1.83744e-06
1.83769e-06
1.83802e-06
1.83819e-06
1.83823e-06
1.83819e-06
1.83807e-06
1.83801e-06
1.83802e-06
1.83823e-06
1.8388e-06
1.83984e-06
1.84152e-06
1.84425e-06
1.84825e-06
1.85407e-06
1.86183e-06
1.872e-06
1.88335e-06
1.89495e-06
1.90354e-06
1.90513e-06
1.89958e-06
1.87698e-06
1.851e-06
1.83444e-06
1.83444e-06
1.83444e-06
1.83444e-06
1.83444e-06
1.83444e-06
1.83445e-06
1.83445e-06
1.83446e-06
1.83447e-06
1.83449e-06
1.83452e-06
1.83456e-06
1.83463e-06
1.83473e-06
1.83486e-06
1.83505e-06
1.83528e-06
1.83557e-06
1.83593e-06
1.83628e-06
1.83666e-06
1.83699e-06
1.83726e-06
1.83741e-06
1.83763e-06
1.8377e-06
1.83766e-06
1.83757e-06
1.83743e-06
1.83736e-06
1.83738e-06
1.8376e-06
1.8382e-06
1.8393e-06
1.84115e-06
1.84404e-06
1.8485e-06
1.85455e-06
1.86323e-06
1.87356e-06
1.88624e-06
1.89738e-06
1.90734e-06
1.90754e-06
1.90078e-06
1.87901e-06
1.85109e-06
1.83444e-06
1.83444e-06
1.83444e-06
1.83444e-06
1.83444e-06
1.83444e-06
1.83445e-06
1.83445e-06
1.83446e-06
1.83447e-06
1.83449e-06
1.83452e-06
1.83456e-06
1.83463e-06
1.83473e-06
1.83486e-06
1.83505e-06
1.83527e-06
1.83555e-06
1.83589e-06
1.83622e-06
1.83657e-06
1.83685e-06
1.83705e-06
1.8371e-06
1.83721e-06
1.83719e-06
1.83707e-06
1.83694e-06
1.83678e-06
1.83671e-06
1.83673e-06
1.83696e-06
1.83756e-06
1.8387e-06
1.84072e-06
1.84379e-06
1.84868e-06
1.85507e-06
1.8645e-06
1.87524e-06
1.88884e-06
1.90005e-06
1.91077e-06
1.91028e-06
1.90261e-06
1.88047e-06
1.85159e-06
1.83444e-06
1.83444e-06
1.83444e-06
1.83444e-06
1.83444e-06
1.83444e-06
1.83445e-06
1.83445e-06
1.83446e-06
1.83447e-06
1.83449e-06
1.83452e-06
1.83456e-06
1.83463e-06
1.83473e-06
1.83485e-06
1.83503e-06
1.83525e-06
1.83552e-06
1.83584e-06
1.83615e-06
1.83647e-06
1.8367e-06
1.83683e-06
1.83677e-06
1.83676e-06
1.83666e-06
1.83648e-06
1.83634e-06
1.83619e-06
1.83614e-06
1.83616e-06
1.83635e-06
1.83692e-06
1.83806e-06
1.84021e-06
1.84352e-06
1.84876e-06
1.85565e-06
1.86559e-06
1.87705e-06
1.8911e-06
1.90305e-06
1.91353e-06
1.91365e-06
1.9039e-06
1.88046e-06
1.85168e-06
1.83444e-06
1.83444e-06
1.83444e-06
1.83444e-06
1.83444e-06
1.83444e-06
1.83445e-06
1.83445e-06
1.83446e-06
1.83447e-06
1.83449e-06
1.83452e-06
1.83456e-06
1.83463e-06
1.83472e-06
1.83484e-06
1.83502e-06
1.83523e-06
1.83548e-06
1.83578e-06
1.83607e-06
1.83635e-06
1.83653e-06
1.83658e-06
1.83642e-06
1.83632e-06
1.83615e-06
1.83594e-06
1.83584e-06
1.83576e-06
1.83577e-06
1.83579e-06
1.8359e-06
1.83633e-06
1.8374e-06
1.83963e-06
1.8432e-06
1.84874e-06
1.85622e-06
1.86657e-06
1.8789e-06
1.89318e-06
1.90619e-06
1.91621e-06
1.91707e-06
1.90644e-06
1.88127e-06
1.8527e-06
1.83444e-06
1.83444e-06
1.83444e-06
1.83444e-06
1.83444e-06
1.83444e-06
1.83445e-06
1.83445e-06
1.83446e-06
1.83447e-06
1.83449e-06
1.83452e-06
1.83456e-06
1.83463e-06
1.83472e-06
1.83483e-06
1.835e-06
1.83519e-06
1.83543e-06
1.83572e-06
1.83598e-06
1.83621e-06
1.83635e-06
1.83632e-06
1.83606e-06
1.83588e-06
1.83569e-06
1.83554e-06
1.83558e-06
1.83566e-06
1.8358e-06
1.83583e-06
1.83578e-06
1.83592e-06
1.83676e-06
1.83899e-06
1.84281e-06
1.84867e-06
1.85671e-06
1.86751e-06
1.88062e-06
1.89527e-06
1.90915e-06
1.91887e-06
1.92024e-06
1.90843e-06
1.88184e-06
1.85313e-06
1.83444e-06
1.83444e-06
1.83444e-06
1.83444e-06
1.83444e-06
1.83444e-06
1.83445e-06
1.83445e-06
1.83446e-06
1.83447e-06
1.83449e-06
1.83452e-06
1.83456e-06
1.83462e-06
1.83471e-06
1.83482e-06
1.83497e-06
1.83516e-06
1.83538e-06
1.83564e-06
1.83587e-06
1.83607e-06
1.83615e-06
1.83606e-06
1.83571e-06
1.83549e-06
1.83538e-06
1.83542e-06
1.83578e-06
1.83613e-06
1.83641e-06
1.83645e-06
1.83623e-06
1.83586e-06
1.83621e-06
1.8383e-06
1.84234e-06
1.84852e-06
1.85709e-06
1.86837e-06
1.88222e-06
1.89726e-06
1.91193e-06
1.92142e-06
1.92318e-06
1.91039e-06
1.88242e-06
1.85343e-06
1.83444e-06
1.83444e-06
1.83444e-06
1.83444e-06
1.83444e-06
1.83444e-06
1.83445e-06
1.83445e-06
1.83446e-06
1.83447e-06
1.83449e-06
1.83452e-06
1.83456e-06
1.83462e-06
1.8347e-06
1.8348e-06
1.83495e-06
1.83512e-06
1.83532e-06
1.83555e-06
1.83575e-06
1.83591e-06
1.83594e-06
1.83578e-06
1.83539e-06
1.8352e-06
1.83533e-06
1.83576e-06
1.83642e-06
1.83697e-06
1.83737e-06
1.83745e-06
1.83715e-06
1.83643e-06
1.83591e-06
1.83759e-06
1.84177e-06
1.84828e-06
1.85734e-06
1.86913e-06
1.88364e-06
1.89914e-06
1.91442e-06
1.9238e-06
1.92574e-06
1.9121e-06
1.88295e-06
1.85349e-06
1.83444e-06
1.83444e-06
1.83444e-06
1.83444e-06
1.83444e-06
1.83444e-06
1.83445e-06
1.83445e-06
1.83446e-06
1.83447e-06
1.83449e-06
1.83452e-06
1.83456e-06
1.83461e-06
1.83469e-06
1.83479e-06
1.83492e-06
1.83508e-06
1.83525e-06
1.83546e-06
1.83563e-06
1.83575e-06
1.83572e-06
1.83551e-06
1.83512e-06
1.83512e-06
1.83566e-06
1.83641e-06
1.83729e-06
1.838e-06
1.83849e-06
1.83862e-06
1.8383e-06
1.83741e-06
1.83607e-06
1.8369e-06
1.8411e-06
1.84793e-06
1.85742e-06
1.86975e-06
1.88482e-06
1.90088e-06
1.91651e-06
1.92603e-06
1.92773e-06
1.91351e-06
1.88354e-06
1.85336e-06
1.83444e-06
1.83444e-06
1.83444e-06
1.83444e-06
1.83444e-06
1.83444e-06
1.83445e-06
1.83445e-06
1.83446e-06
1.83447e-06
1.83449e-06
1.83452e-06
1.83455e-06
1.83461e-06
1.83468e-06
1.83477e-06
1.83489e-06
1.83503e-06
1.83518e-06
1.83536e-06
1.8355e-06
1.83557e-06
1.8355e-06
1.83525e-06
1.83497e-06
1.83535e-06
1.83622e-06
1.83719e-06
1.83824e-06
1.83909e-06
1.83969e-06
1.83988e-06
1.83958e-06
1.83862e-06
1.83684e-06
1.83634e-06
1.84033e-06
1.84747e-06
1.8573e-06
1.87023e-06
1.8857e-06
1.90251e-06
1.9181e-06
1.92816e-06
1.92896e-06
1.91455e-06
1.88436e-06
1.85319e-06
1.83444e-06
1.83444e-06
1.83444e-06
1.83444e-06
1.83444e-06
1.83444e-06
1.83445e-06
1.83445e-06
1.83446e-06
1.83447e-06
1.83449e-06
1.83451e-06
1.83455e-06
1.8346e-06
1.83467e-06
1.83475e-06
1.83485e-06
1.83498e-06
1.83511e-06
1.83526e-06
1.83536e-06
1.8354e-06
1.83528e-06
1.83503e-06
1.83502e-06
1.83576e-06
1.83686e-06
1.838e-06
1.83922e-06
1.84022e-06
1.84094e-06
1.84121e-06
1.84094e-06
1.83996e-06
1.83797e-06
1.83607e-06
1.83947e-06
1.84688e-06
1.85699e-06
1.87055e-06
1.88626e-06
1.904e-06
1.91916e-06
1.93022e-06
1.92944e-06
1.91531e-06
1.88549e-06
1.85322e-06
1.83444e-06
1.83444e-06
1.83444e-06
1.83444e-06
1.83444e-06
1.83444e-06
1.83445e-06
1.83445e-06
1.83446e-06
1.83447e-06
1.83449e-06
1.83451e-06
1.83455e-06
1.8346e-06