/*--------------------------------*- C++ -*----------------------------------*\
  =========                 |
  \\      /  F ield         | OpenFOAM: The Open Source CFD Toolbox
   \\    /   O peration     | Website:  https://openfoam.org
    \\  /    A nd           | Version:  10
     \\/     M anipulation  |
\*---------------------------------------------------------------------------*/
FoamFile
{
    format      ascii;
    class       volScalarField;
    location    "10";
    object      nuTilda;
}
// * * * * * * * * * * * * * * * * * * * * * * * * * * * * * * * * * * * * * //

dimensions      [0 2 -1 0 0 0 0];

internalField   nonuniform List<scalar> 
38016
(
2.604e-05
2.604e-05
2.604e-05
2.604e-05
2.604e-05
2.604e-05
2.604e-05
2.604e-05
2.604e-05
2.604e-05
2.604e-05
2.604e-05
2.60401e-05
2.60401e-05
2.60401e-05
2.60402e-05
2.60402e-05
2.60403e-05
2.60405e-05
2.60407e-05
2.60411e-05
2.60425e-05
2.60411e-05
2.60441e-05
2.60435e-05
2.60465e-05
2.60463e-05
2.60474e-05
2.60473e-05
2.60466e-05
2.60453e-05
2.60434e-05
2.60411e-05
2.60421e-05
2.60455e-05
2.60497e-05
2.60546e-05
2.60602e-05
2.60664e-05
2.6073e-05
2.60797e-05
2.60862e-05
2.60928e-05
2.60986e-05
2.61058e-05
2.61105e-05
2.61208e-05
2.61255e-05
2.604e-05
2.604e-05
2.604e-05
2.604e-05
2.604e-05
2.604e-05
2.604e-05
2.604e-05
2.604e-05
2.604e-05
2.604e-05
2.604e-05
2.60401e-05
2.60401e-05
2.60401e-05
2.60402e-05
2.60402e-05
2.60404e-05
2.60405e-05
2.60408e-05
2.60411e-05
2.60424e-05
2.60413e-05
2.60439e-05
2.60435e-05
2.60462e-05
2.60461e-05
2.60471e-05
2.60471e-05
2.60465e-05
2.60453e-05
2.60436e-05
2.60415e-05
2.60416e-05
2.60444e-05
2.60481e-05
2.60524e-05
2.60572e-05
2.60623e-05
2.60676e-05
2.60727e-05
2.60775e-05
2.6082e-05
2.60854e-05
2.60902e-05
2.60928e-05
2.60998e-05
2.6103e-05
2.604e-05
2.604e-05
2.604e-05
2.604e-05
2.604e-05
2.604e-05
2.604e-05
2.604e-05
2.604e-05
2.604e-05
2.604e-05
2.604e-05
2.60401e-05
2.60401e-05
2.60401e-05
2.60402e-05
2.60402e-05
2.60404e-05
2.60406e-05
2.60408e-05
2.60412e-05
2.60424e-05
2.60415e-05
2.60439e-05
2.60439e-05
2.60464e-05
2.60465e-05
2.60474e-05
2.60473e-05
2.60467e-05
2.60456e-05
2.6044e-05
2.6042e-05
2.60411e-05
2.60435e-05
2.60467e-05
2.60504e-05
2.60545e-05
2.60586e-05
2.60627e-05
2.60665e-05
2.60696e-05
2.60723e-05
2.6074e-05
2.60768e-05
2.60779e-05
2.60829e-05
2.60848e-05
2.604e-05
2.604e-05
2.604e-05
2.604e-05
2.604e-05
2.604e-05
2.604e-05
2.604e-05
2.604e-05
2.604e-05
2.604e-05
2.604e-05
2.60401e-05
2.60401e-05
2.60401e-05
2.60402e-05
2.60403e-05
2.60404e-05
2.60406e-05
2.60409e-05
2.60412e-05
2.60423e-05
2.60417e-05
2.60439e-05
2.60441e-05
2.60465e-05
2.60468e-05
2.60477e-05
2.60477e-05
2.60471e-05
2.6046e-05
2.60444e-05
2.60424e-05
2.6041e-05
2.60428e-05
2.60457e-05
2.60491e-05
2.60526e-05
2.60561e-05
2.60594e-05
2.60622e-05
2.60642e-05
2.60657e-05
2.60662e-05
2.60678e-05
2.60682e-05
2.60722e-05
2.60733e-05
2.604e-05
2.604e-05
2.604e-05
2.604e-05
2.604e-05
2.604e-05
2.604e-05
2.604e-05
2.604e-05
2.604e-05
2.604e-05
2.60401e-05
2.60401e-05
2.60401e-05
2.60401e-05
2.60402e-05
2.60403e-05
2.60404e-05
2.60406e-05
2.60409e-05
2.60413e-05
2.60424e-05
2.6042e-05
2.60441e-05
2.60445e-05
2.60469e-05
2.60474e-05
2.60482e-05
2.60482e-05
2.60476e-05
2.60465e-05
2.60449e-05
2.6043e-05
2.60411e-05
2.60423e-05
2.60449e-05
2.60479e-05
2.6051e-05
2.6054e-05
2.60566e-05
2.60585e-05
2.60596e-05
2.60602e-05
2.60601e-05
2.60609e-05
2.60608e-05
2.6064e-05
2.60648e-05
2.604e-05
2.604e-05
2.604e-05
2.604e-05
2.604e-05
2.604e-05
2.604e-05
2.604e-05
2.604e-05
2.604e-05
2.604e-05
2.60401e-05
2.60401e-05
2.60401e-05
2.60402e-05
2.60403e-05
2.60403e-05
2.60405e-05
2.60407e-05
2.6041e-05
2.60414e-05
2.60424e-05
2.60423e-05
2.60442e-05
2.6045e-05
2.60472e-05
2.60479e-05
2.60487e-05
2.60487e-05
2.60482e-05
2.6047e-05
2.60455e-05
2.60435e-05
2.60415e-05
2.60418e-05
2.60441e-05
2.60467e-05
2.60494e-05
2.60519e-05
2.60538e-05
2.6055e-05
2.60554e-05
2.60554e-05
2.60548e-05
2.60552e-05
2.60551e-05
2.60574e-05
2.60577e-05
2.604e-05
2.604e-05
2.604e-05
2.604e-05
2.604e-05
2.604e-05
2.604e-05
2.604e-05
2.604e-05
2.604e-05
2.604e-05
2.60401e-05
2.60401e-05
2.60401e-05
2.60402e-05
2.60403e-05
2.60403e-05
2.60405e-05
2.60408e-05
2.60411e-05
2.60415e-05
2.60425e-05
2.60426e-05
2.60445e-05
2.60454e-05
2.60477e-05
2.60485e-05
2.60493e-05
2.60493e-05
2.60488e-05
2.60476e-05
2.60461e-05
2.60442e-05
2.60421e-05
2.60415e-05
2.60433e-05
2.60455e-05
2.60478e-05
2.60497e-05
2.6051e-05
2.60516e-05
2.60515e-05
2.60513e-05
2.60509e-05
2.60514e-05
2.60515e-05
2.60524e-05
2.60519e-05
2.604e-05
2.604e-05
2.604e-05
2.604e-05
2.604e-05
2.604e-05
2.604e-05
2.604e-05
2.604e-05
2.604e-05
2.604e-05
2.60401e-05
2.60401e-05
2.60401e-05
2.60402e-05
2.60403e-05
2.60404e-05
2.60406e-05
2.60408e-05
2.60412e-05
2.60416e-05
2.60426e-05
2.60429e-05
2.60447e-05
2.60459e-05
2.60481e-05
2.60491e-05
2.60499e-05
2.605e-05
2.60494e-05
2.60483e-05
2.60468e-05
2.60449e-05
2.60429e-05
2.60415e-05
2.60426e-05
2.60444e-05
2.60462e-05
2.60476e-05
2.60484e-05
2.60487e-05
2.60485e-05
2.60488e-05
2.60493e-05
2.60504e-05
2.60515e-05
2.60503e-05
2.60478e-05
2.604e-05
2.604e-05
2.604e-05
2.604e-05
2.604e-05
2.604e-05
2.604e-05
2.604e-05
2.604e-05
2.604e-05
2.604e-05
2.60401e-05
2.60401e-05
2.60402e-05
2.60402e-05
2.60403e-05
2.60404e-05
2.60406e-05
2.60409e-05
2.60413e-05
2.60418e-05
2.60427e-05
2.60431e-05
2.60449e-05
2.60463e-05
2.60486e-05
2.60498e-05
2.60506e-05
2.60507e-05
2.60501e-05
2.6049e-05
2.60475e-05
2.60456e-05
2.60438e-05
2.6042e-05
2.60422e-05
2.60434e-05
2.60448e-05
2.60459e-05
2.60464e-05
2.60468e-05
2.6047e-05
2.60488e-05
2.60513e-05
2.60534e-05
2.6055e-05
2.6052e-05
2.60461e-05
2.604e-05
2.604e-05
2.604e-05
2.604e-05
2.604e-05
2.604e-05
2.604e-05
2.604e-05
2.604e-05
2.604e-05
2.60401e-05
2.60401e-05
2.60401e-05
2.60402e-05
2.60402e-05
2.60403e-05
2.60405e-05
2.60407e-05
2.6041e-05
2.60414e-05
2.60419e-05
2.60428e-05
2.60435e-05
2.60452e-05
2.60468e-05
2.60491e-05
2.60504e-05
2.60513e-05
2.60514e-05
2.60508e-05
2.60497e-05
2.60483e-05
2.60465e-05
2.60447e-05
2.6043e-05
2.60424e-05
2.6043e-05
2.60439e-05
2.60448e-05
2.60454e-05
2.60465e-05
2.60484e-05
2.60517e-05
2.60556e-05
2.60585e-05
2.60602e-05
2.60559e-05
2.60468e-05
2.604e-05
2.604e-05
2.604e-05
2.604e-05
2.604e-05
2.604e-05
2.604e-05
2.604e-05
2.604e-05
2.604e-05
2.60401e-05
2.60401e-05
2.60401e-05
2.60402e-05
2.60402e-05
2.60404e-05
2.60405e-05
2.60407e-05
2.6041e-05
2.60415e-05
2.6042e-05
2.6043e-05
2.60438e-05
2.60456e-05
2.60473e-05
2.60497e-05
2.60511e-05
2.6052e-05
2.60521e-05
2.60516e-05
2.60505e-05
2.60491e-05
2.60474e-05
2.60458e-05
2.60442e-05
2.60433e-05
2.60434e-05
2.6044e-05
2.60451e-05
2.60463e-05
2.60485e-05
2.60516e-05
2.60561e-05
2.60609e-05
2.60644e-05
2.60659e-05
2.60606e-05
2.60487e-05
2.604e-05
2.604e-05
2.604e-05
2.604e-05
2.604e-05
2.604e-05
2.604e-05
2.604e-05
2.604e-05
2.604e-05
2.60401e-05
2.60401e-05
2.60401e-05
2.60402e-05
2.60403e-05
2.60404e-05
2.60405e-05
2.60408e-05
2.60411e-05
2.60416e-05
2.60422e-05
2.60431e-05
2.60441e-05
2.60459e-05
2.60479e-05
2.60503e-05
2.60519e-05
2.60528e-05
2.60529e-05
2.60524e-05
2.60514e-05
2.605e-05
2.60484e-05
2.60469e-05
2.60456e-05
2.60448e-05
2.60447e-05
2.60454e-05
2.60467e-05
2.60486e-05
2.60516e-05
2.60557e-05
2.6061e-05
2.60666e-05
2.60705e-05
2.60717e-05
2.60655e-05
2.60503e-05
2.604e-05
2.604e-05
2.604e-05
2.604e-05
2.604e-05
2.604e-05
2.604e-05
2.604e-05
2.604e-05
2.604e-05
2.60401e-05
2.60401e-05
2.60401e-05
2.60402e-05
2.60403e-05
2.60404e-05
2.60406e-05
2.60409e-05
2.60412e-05
2.60417e-05
2.60424e-05
2.60433e-05
2.60444e-05
2.60463e-05
2.60484e-05
2.60509e-05
2.60526e-05
2.60536e-05
2.60538e-05
2.60533e-05
2.60523e-05
2.6051e-05
2.60495e-05
2.60482e-05
2.6047e-05
2.60465e-05
2.60466e-05
2.60475e-05
2.60491e-05
2.60516e-05
2.60552e-05
2.60601e-05
2.60662e-05
2.60724e-05
2.60767e-05
2.60777e-05
2.60703e-05
2.60513e-05
2.604e-05
2.604e-05
2.604e-05
2.604e-05
2.604e-05
2.604e-05
2.604e-05
2.604e-05
2.604e-05
2.604e-05
2.60401e-05
2.60401e-05
2.60401e-05
2.60402e-05
2.60403e-05
2.60405e-05
2.60406e-05
2.60409e-05
2.60413e-05
2.60419e-05
2.60425e-05
2.60436e-05
2.60448e-05
2.60467e-05
2.6049e-05
2.60516e-05
2.60534e-05
2.60544e-05
2.60547e-05
2.60542e-05
2.60532e-05
2.6052e-05
2.60506e-05
2.60495e-05
2.60486e-05
2.60483e-05
2.60486e-05
2.60498e-05
2.60518e-05
2.60547e-05
2.6059e-05
2.60646e-05
2.60714e-05
2.60783e-05
2.60829e-05
2.60835e-05
2.60748e-05
2.60519e-05
2.604e-05
2.604e-05
2.604e-05
2.604e-05
2.604e-05
2.604e-05
2.604e-05
2.604e-05
2.604e-05
2.604e-05
2.60401e-05
2.60401e-05
2.60402e-05
2.60402e-05
2.60403e-05
2.60405e-05
2.60407e-05
2.6041e-05
2.60414e-05
2.6042e-05
2.60427e-05
2.60438e-05
2.60451e-05
2.60471e-05
2.60496e-05
2.60523e-05
2.60542e-05
2.60553e-05
2.60556e-05
2.60551e-05
2.60542e-05
2.6053e-05
2.60518e-05
2.60508e-05
2.60502e-05
2.60501e-05
2.60508e-05
2.60523e-05
2.60546e-05
2.6058e-05
2.60629e-05
2.60692e-05
2.60767e-05
2.60841e-05
2.60891e-05
2.60891e-05
2.60792e-05
2.60523e-05
2.604e-05
2.604e-05
2.604e-05
2.604e-05
2.604e-05
2.604e-05
2.604e-05
2.604e-05
2.604e-05
2.60401e-05
2.60401e-05
2.60401e-05
2.60402e-05
2.60402e-05
2.60404e-05
2.60405e-05
2.60407e-05
2.60411e-05
2.60415e-05
2.60422e-05
2.60429e-05
2.60441e-05
2.60455e-05
2.60475e-05
2.60502e-05
2.6053e-05
2.6055e-05
2.60562e-05
2.60565e-05
2.60561e-05
2.60552e-05
2.60541e-05
2.6053e-05
2.60523e-05
2.60519e-05
2.60521e-05
2.6053e-05
2.60548e-05
2.60574e-05
2.60613e-05
2.60668e-05
2.60738e-05
2.60819e-05
2.609e-05
2.60953e-05
2.60947e-05
2.60837e-05
2.60524e-05
2.604e-05
2.604e-05
2.604e-05
2.604e-05
2.604e-05
2.604e-05
2.604e-05
2.604e-05
2.604e-05
2.60401e-05
2.60401e-05
2.60401e-05
2.60402e-05
2.60403e-05
2.60404e-05
2.60406e-05
2.60408e-05
2.60412e-05
2.60416e-05
2.60423e-05
2.60432e-05
2.60443e-05
2.60459e-05
2.6048e-05
2.60508e-05
2.60537e-05
2.60559e-05
2.60571e-05
2.60575e-05
2.60571e-05
2.60562e-05
2.60553e-05
2.60543e-05
2.60537e-05
2.60536e-05
2.6054e-05
2.60552e-05
2.60573e-05
2.60602e-05
2.60646e-05
2.60706e-05
2.60784e-05
2.60872e-05
2.6096e-05
2.61015e-05
2.61004e-05
2.60881e-05
2.6052e-05
2.604e-05
2.604e-05
2.604e-05
2.604e-05
2.604e-05
2.604e-05
2.604e-05
2.604e-05
2.604e-05
2.60401e-05
2.60401e-05
2.60401e-05
2.60402e-05
2.60403e-05
2.60404e-05
2.60406e-05
2.60409e-05
2.60413e-05
2.60418e-05
2.60425e-05
2.60434e-05
2.60446e-05
2.60463e-05
2.60485e-05
2.60514e-05
2.60544e-05
2.60567e-05
2.60581e-05
2.60585e-05
2.60581e-05
2.60573e-05
2.60565e-05
2.60556e-05
2.60552e-05
2.60553e-05
2.6056e-05
2.60574e-05
2.60597e-05
2.60631e-05
2.60679e-05
2.60745e-05
2.6083e-05
2.60925e-05
2.61022e-05
2.61079e-05
2.61063e-05
2.60926e-05
2.60512e-05
2.604e-05
2.604e-05
2.604e-05
2.604e-05
2.604e-05
2.604e-05
2.604e-05
2.604e-05
2.604e-05
2.60401e-05
2.60401e-05
2.60401e-05
2.60402e-05
2.60403e-05
2.60404e-05
2.60407e-05
2.60409e-05
2.60414e-05
2.60419e-05
2.60427e-05
2.60436e-05
2.60449e-05
2.60467e-05
2.6049e-05
2.60521e-05
2.60552e-05
2.60576e-05
2.6059e-05
2.60594e-05
2.60592e-05
2.60584e-05
2.60577e-05
2.6057e-05
2.60567e-05
2.6057e-05
2.60579e-05
2.60596e-05
2.60621e-05
2.60658e-05
2.60712e-05
2.60784e-05
2.60876e-05
2.60981e-05
2.61084e-05
2.61146e-05
2.61124e-05
2.60971e-05
2.60501e-05
2.604e-05
2.604e-05
2.604e-05
2.604e-05
2.604e-05
2.604e-05
2.604e-05
2.604e-05
2.604e-05
2.60401e-05
2.60401e-05
2.60401e-05
2.60402e-05
2.60403e-05
2.60405e-05
2.60407e-05
2.6041e-05
2.60415e-05
2.60421e-05
2.60429e-05
2.60439e-05
2.60452e-05
2.60472e-05
2.60495e-05
2.60527e-05
2.6056e-05
2.60585e-05
2.60599e-05
2.60604e-05
2.60602e-05
2.60595e-05
2.60589e-05
2.60583e-05
2.60582e-05
2.60587e-05
2.60598e-05
2.60616e-05
2.60644e-05
2.60685e-05
2.60744e-05
2.60823e-05
2.60923e-05
2.61038e-05
2.61147e-05
2.61216e-05
2.61187e-05
2.61014e-05
2.60488e-05
2.604e-05
2.604e-05
2.604e-05
2.604e-05
2.604e-05
2.604e-05
2.604e-05
2.604e-05
2.604e-05
2.60401e-05
2.60401e-05
2.60402e-05
2.60402e-05
2.60404e-05
2.60405e-05
2.60408e-05
2.60411e-05
2.60416e-05
2.60422e-05
2.60431e-05
2.60442e-05
2.60456e-05
2.60476e-05
2.605e-05
2.60534e-05
2.60567e-05
2.60593e-05
2.60609e-05
2.60614e-05
2.60612e-05
2.60606e-05
2.60601e-05
2.60597e-05
2.60597e-05
2.60603e-05
2.60616e-05
2.60636e-05
2.60667e-05
2.60712e-05
2.60776e-05
2.60863e-05
2.60969e-05
2.61099e-05
2.61211e-05
2.61291e-05
2.6125e-05
2.61055e-05
2.60476e-05
2.604e-05
2.604e-05
2.604e-05
2.604e-05
2.604e-05
2.604e-05
2.604e-05
2.604e-05
2.604e-05
2.60401e-05
2.60401e-05
2.60402e-05
2.60402e-05
2.60404e-05
2.60406e-05
2.60408e-05
2.60412e-05
2.60417e-05
2.60424e-05
2.60433e-05
2.60445e-05
2.60459e-05
2.6048e-05
2.60506e-05
2.6054e-05
2.60575e-05
2.60602e-05
2.60618e-05
2.60624e-05
2.60623e-05
2.60617e-05
2.60612e-05
2.60609e-05
2.60611e-05
2.60618e-05
2.60633e-05
2.60655e-05
2.60689e-05
2.60738e-05
2.60807e-05
2.60904e-05
2.61018e-05
2.61161e-05
2.61277e-05
2.61368e-05
2.61313e-05
2.61094e-05
2.60465e-05
2.604e-05
2.604e-05
2.604e-05
2.604e-05
2.604e-05
2.604e-05
2.604e-05
2.604e-05
2.60401e-05
2.60401e-05
2.60401e-05
2.60402e-05
2.60403e-05
2.60404e-05
2.60406e-05
2.60409e-05
2.60413e-05
2.60418e-05
2.60425e-05
2.60435e-05
2.60447e-05
2.60463e-05
2.60485e-05
2.60511e-05
2.60546e-05
2.60582e-05
2.60609e-05
2.60626e-05
2.60633e-05
2.60632e-05
2.60628e-05
2.60624e-05
2.60622e-05
2.60625e-05
2.60633e-05
2.60649e-05
2.60674e-05
2.6071e-05
2.60765e-05
2.60839e-05
2.60945e-05
2.61068e-05
2.61225e-05
2.61346e-05
2.61447e-05
2.61374e-05
2.61133e-05
2.60455e-05
2.604e-05
2.604e-05
2.604e-05
2.604e-05
2.604e-05
2.604e-05
2.604e-05
2.604e-05
2.60401e-05
2.60401e-05
2.60401e-05
2.60402e-05
2.60403e-05
2.60404e-05
2.60406e-05
2.60409e-05
2.60414e-05
2.60419e-05
2.60427e-05
2.60437e-05
2.6045e-05
2.60467e-05
2.60489e-05
2.60516e-05
2.60552e-05
2.60589e-05
2.60617e-05
2.60634e-05
2.60641e-05
2.60641e-05
2.60638e-05
2.60634e-05
2.60634e-05
2.60637e-05
2.60647e-05
2.60664e-05
2.60691e-05
2.6073e-05
2.6079e-05
2.60872e-05
2.60986e-05
2.61121e-05
2.6129e-05
2.6142e-05
2.61527e-05
2.61439e-05
2.6118e-05
2.60446e-05
2.604e-05
2.604e-05
2.604e-05
2.604e-05
2.604e-05
2.604e-05
2.604e-05
2.604e-05
2.60401e-05
2.60401e-05
2.60401e-05
2.60402e-05
2.60403e-05
2.60405e-05
2.60407e-05
2.6041e-05
2.60414e-05
2.60421e-05
2.60429e-05
2.6044e-05
2.60453e-05
2.6047e-05
2.60494e-05
2.60521e-05
2.60558e-05
2.60595e-05
2.60624e-05
2.60642e-05
2.60649e-05
2.6065e-05
2.60647e-05
2.60644e-05
2.60644e-05
2.60649e-05
2.6066e-05
2.60678e-05
2.60707e-05
2.6075e-05
2.60815e-05
2.60905e-05
2.61028e-05
2.61176e-05
2.61355e-05
2.615e-05
2.61607e-05
2.61515e-05
2.61237e-05
2.60427e-05
2.604e-05
2.604e-05
2.604e-05
2.604e-05
2.604e-05
2.604e-05
2.604e-05
2.604e-05
2.60401e-05
2.60401e-05
2.60401e-05
2.60402e-05
2.60403e-05
2.60405e-05
2.60407e-05
2.60411e-05
2.60415e-05
2.60422e-05
2.60431e-05
2.60442e-05
2.60456e-05
2.60474e-05
2.60498e-05
2.60526e-05
2.60563e-05
2.60601e-05
2.6063e-05
2.60648e-05
2.60656e-05
2.60658e-05
2.60655e-05
2.60653e-05
2.60654e-05
2.60659e-05
2.60671e-05
2.60691e-05
2.60722e-05
2.60769e-05
2.6084e-05
2.60937e-05
2.61071e-05
2.61233e-05
2.61424e-05
2.61584e-05
2.61689e-05
2.61602e-05
2.61302e-05
2.60397e-05
2.604e-05
2.604e-05
2.604e-05
2.604e-05
2.604e-05
2.604e-05
2.604e-05
2.604e-05
2.60401e-05
2.60401e-05
2.60401e-05
2.60402e-05
2.60403e-05
2.60405e-05
2.60408e-05
2.60411e-05
2.60416e-05
2.60423e-05
2.60432e-05
2.60445e-05
2.60459e-05
2.60477e-05
2.60502e-05
2.6053e-05
2.60568e-05
2.60606e-05
2.60635e-05
2.60654e-05
2.60662e-05
2.60664e-05
2.60662e-05
2.60661e-05
2.60662e-05
2.60668e-05
2.60681e-05
2.60702e-05
2.60735e-05
2.60787e-05
2.60864e-05
2.6097e-05
2.61115e-05
2.61291e-05
2.61496e-05
2.61671e-05
2.61776e-05
2.61697e-05
2.61372e-05
2.60362e-05
2.604e-05
2.604e-05
2.604e-05
2.604e-05
2.604e-05
2.604e-05
2.604e-05
2.604e-05
2.60401e-05
2.60401e-05
2.60401e-05
2.60402e-05
2.60404e-05
2.60405e-05
2.60408e-05
2.60412e-05
2.60417e-05
2.60425e-05
2.60434e-05
2.60447e-05
2.60462e-05
2.60481e-05
2.60506e-05
2.60534e-05
2.60572e-05
2.6061e-05
2.6064e-05
2.60659e-05
2.60667e-05
2.60669e-05
2.60668e-05
2.60667e-05
2.60669e-05
2.60675e-05
2.60689e-05
2.60712e-05
2.60748e-05
2.60804e-05
2.60887e-05
2.61003e-05
2.61161e-05
2.6135e-05
2.61572e-05
2.61758e-05
2.61868e-05
2.61787e-05
2.61432e-05
2.60362e-05
2.604e-05
2.604e-05
2.604e-05
2.604e-05
2.604e-05
2.604e-05
2.604e-05
2.604e-05
2.60401e-05
2.60401e-05
2.60402e-05
2.60402e-05
2.60404e-05
2.60406e-05
2.60409e-05
2.60413e-05
2.60418e-05
2.60426e-05
2.60436e-05
2.60449e-05
2.60465e-05
2.60484e-05
2.60509e-05
2.60538e-05
2.60575e-05
2.60613e-05
2.60643e-05
2.60662e-05
2.6067e-05
2.60673e-05
2.60672e-05
2.60671e-05
2.60673e-05
2.6068e-05
2.60695e-05
2.6072e-05
2.60759e-05
2.6082e-05
2.60911e-05
2.61035e-05
2.61208e-05
2.61411e-05
2.61652e-05
2.61845e-05
2.61964e-05
2.6186e-05
2.6147e-05
2.60381e-05
2.604e-05
2.604e-05
2.604e-05
2.604e-05
2.604e-05
2.604e-05
2.604e-05
2.604e-05
2.60401e-05
2.60401e-05
2.60402e-05
2.60403e-05
2.60404e-05
2.60406e-05
2.60409e-05
2.60413e-05
2.60419e-05
2.60427e-05
2.60438e-05
2.60451e-05
2.60468e-05
2.60487e-05
2.60512e-05
2.60541e-05
2.60578e-05
2.60616e-05
2.60645e-05
2.60664e-05
2.60672e-05
2.60675e-05
2.60674e-05
2.60674e-05
2.60676e-05
2.60684e-05
2.607e-05
2.60726e-05
2.60769e-05
2.60835e-05
2.60934e-05
2.61068e-05
2.61256e-05
2.61473e-05
2.61734e-05
2.61932e-05
2.62064e-05
2.61921e-05
2.61505e-05
2.60422e-05
2.604e-05
2.604e-05
2.604e-05
2.604e-05
2.604e-05
2.604e-05
2.604e-05
2.60401e-05
2.60401e-05
2.60401e-05
2.60402e-05
2.60403e-05
2.60404e-05
2.60406e-05
2.60409e-05
2.60414e-05
2.6042e-05
2.60428e-05
2.60439e-05
2.60454e-05
2.6047e-05
2.6049e-05
2.60515e-05
2.60544e-05
2.60579e-05
2.60616e-05
2.60645e-05
2.60664e-05
2.60672e-05
2.60675e-05
2.60674e-05
2.60674e-05
2.60677e-05
2.60685e-05
2.60702e-05
2.60731e-05
2.60778e-05
2.60849e-05
2.60957e-05
2.61102e-05
2.61306e-05
2.61538e-05
2.61818e-05
2.62018e-05
2.62166e-05
2.61975e-05
2.6152e-05
2.60416e-05
2.604e-05
2.604e-05
2.604e-05
2.604e-05
2.604e-05
2.604e-05
2.604e-05
2.60401e-05
2.60401e-05
2.60401e-05
2.60402e-05
2.60403e-05
2.60404e-05
2.60407e-05
2.6041e-05
2.60415e-05
2.60421e-05
2.6043e-05
2.60441e-05
2.60455e-05
2.60472e-05
2.60492e-05
2.60517e-05
2.60545e-05
2.6058e-05
2.60616e-05
2.60644e-05
2.60662e-05
2.6067e-05
2.60673e-05
2.60672e-05
2.60672e-05
2.60675e-05
2.60684e-05
2.60703e-05
2.60735e-05
2.60786e-05
2.60862e-05
2.6098e-05
2.61136e-05
2.61358e-05
2.61604e-05
2.61906e-05
2.62106e-05
2.62271e-05
2.62029e-05
2.61543e-05
2.60423e-05
2.604e-05
2.604e-05
2.604e-05
2.604e-05
2.604e-05
2.604e-05
2.604e-05
2.60401e-05
2.60401e-05
2.60401e-05
2.60402e-05
2.60403e-05
2.60404e-05
2.60407e-05
2.6041e-05
2.60415e-05
2.60422e-05
2.60431e-05
2.60442e-05
2.60457e-05
2.60474e-05
2.60494e-05
2.60519e-05
2.60546e-05
2.60579e-05
2.60614e-05
2.6064e-05
2.60658e-05
2.60665e-05
2.60668e-05
2.60668e-05
2.60668e-05
2.60671e-05
2.60681e-05
2.60702e-05
2.60736e-05
2.60792e-05
2.60875e-05
2.61003e-05
2.61171e-05
2.61412e-05
2.61672e-05
2.61996e-05
2.62199e-05
2.62374e-05
2.62105e-05
2.6158e-05
2.6047e-05
2.604e-05
2.604e-05
2.604e-05
2.604e-05
2.604e-05
2.604e-05
2.604e-05
2.60401e-05
2.60401e-05
2.60401e-05
2.60402e-05
2.60403e-05
2.60405e-05
2.60407e-05
2.60411e-05
2.60416e-05
2.60423e-05
2.60432e-05
2.60444e-05
2.60459e-05
2.60476e-05
2.60496e-05
2.6052e-05
2.60546e-05
2.60577e-05
2.60611e-05
2.60635e-05
2.60652e-05
2.60659e-05
2.60661e-05
2.60661e-05
2.60661e-05
2.60665e-05
2.60676e-05
2.60699e-05
2.60736e-05
2.60797e-05
2.60887e-05
2.61028e-05
2.61206e-05
2.61469e-05
2.61742e-05
2.62092e-05
2.62295e-05
2.62478e-05
2.622e-05
2.61618e-05
2.60545e-05
2.604e-05
2.604e-05
2.604e-05
2.604e-05
2.604e-05
2.604e-05
2.604e-05
2.60401e-05
2.60401e-05
2.60401e-05
2.60402e-05
2.60403e-05
2.60405e-05
2.60407e-05
2.60411e-05
2.60416e-05
2.60424e-05
2.60433e-05
2.60445e-05
2.6046e-05
2.60477e-05
2.60497e-05
2.6052e-05
2.60545e-05
2.60574e-05
2.60605e-05
2.60629e-05
2.60644e-05
2.6065e-05
2.60652e-05
2.60651e-05
2.60652e-05
2.60656e-05
2.60668e-05
2.60693e-05
2.60734e-05
2.60801e-05
2.60897e-05
2.61053e-05
2.61242e-05
2.6153e-05
2.61813e-05
2.62197e-05
2.62393e-05
2.62588e-05
2.62322e-05
2.61658e-05
2.60672e-05
2.604e-05
2.604e-05
2.604e-05
2.604e-05
2.604e-05
2.604e-05
2.604e-05
2.60401e-05
2.60401e-05
2.60401e-05
2.60402e-05
2.60403e-05
2.60405e-05
2.60407e-05
2.60411e-05
2.60417e-05
2.60424e-05
2.60433e-05
2.60446e-05
2.60461e-05
2.60478e-05
2.60498e-05
2.6052e-05
2.60543e-05
2.6057e-05
2.60599e-05
2.6062e-05
2.60633e-05
2.60639e-05
2.6064e-05
2.60639e-05
2.60639e-05
2.60644e-05
2.60657e-05
2.60685e-05
2.6073e-05
2.60804e-05
2.60908e-05
2.61078e-05
2.61278e-05
2.61596e-05
2.61886e-05
2.62309e-05
2.62492e-05
2.62708e-05
2.62453e-05
2.61686e-05
2.60783e-05
2.604e-05
2.604e-05
2.604e-05
2.604e-05
2.604e-05
2.604e-05
2.604e-05
2.60401e-05
2.60401e-05
2.60401e-05
2.60402e-05
2.60403e-05
2.60405e-05
2.60408e-05
2.60412e-05
2.60417e-05
2.60425e-05
2.60434e-05
2.60446e-05
2.60462e-05
2.60478e-05
2.60498e-05
2.60519e-05
2.60541e-05
2.60564e-05
2.6059e-05
2.60609e-05
2.60621e-05
2.60625e-05
2.60625e-05
2.60624e-05
2.60624e-05
2.60629e-05
2.60644e-05
2.60675e-05
2.60724e-05
2.60806e-05
2.60917e-05
2.61104e-05
2.61317e-05
2.61664e-05
2.61965e-05
2.62425e-05
2.626e-05
2.62831e-05
2.62579e-05
2.6171e-05
2.60865e-05
2.604e-05
2.604e-05
2.604e-05
2.604e-05
2.604e-05
2.604e-05
2.604e-05
2.60401e-05
2.60401e-05
2.60401e-05
2.60402e-05
2.60403e-05
2.60405e-05
2.60408e-05
2.60412e-05
2.60417e-05
2.60425e-05
2.60434e-05
2.60447e-05
2.60462e-05
2.60478e-05
2.60497e-05
2.60517e-05
2.60537e-05
2.60557e-05
2.6058e-05
2.60596e-05
2.60605e-05
2.60608e-05
2.60607e-05
2.60606e-05
2.60606e-05
2.60612e-05
2.60629e-05
2.60663e-05
2.60716e-05
2.60806e-05
2.60927e-05
2.61129e-05
2.6136e-05
2.61731e-05
2.62057e-05
2.6254e-05
2.62729e-05
2.62954e-05
2.62713e-05
2.61788e-05
2.60956e-05
2.604e-05
2.604e-05
2.604e-05
2.604e-05
2.604e-05
2.604e-05
2.604e-05
2.60401e-05
2.60401e-05
2.60401e-05
2.60402e-05
2.60403e-05
2.60405e-05
2.60408e-05
2.60412e-05
2.60417e-05
2.60425e-05
2.60435e-05
2.60447e-05
2.60462e-05
2.60478e-05
2.60496e-05
2.60514e-05
2.60532e-05
2.60549e-05
2.60568e-05
2.60581e-05
2.60588e-05
2.60589e-05
2.60587e-05
2.60585e-05
2.60585e-05
2.60592e-05
2.60611e-05
2.60648e-05
2.60706e-05
2.60803e-05
2.60937e-05
2.61153e-05
2.61408e-05
2.61798e-05
2.6216e-05
2.62648e-05
2.62877e-05
2.63061e-05
2.62838e-05
2.61887e-05
2.61011e-05
2.604e-05
2.604e-05
2.604e-05
2.604e-05
2.604e-05
2.604e-05
2.604e-05
2.60401e-05
2.60401e-05
2.60401e-05
2.60402e-05
2.60403e-05
2.60405e-05
2.60408e-05
2.60412e-05
2.60418e-05
2.60425e-05
2.60435e-05
2.60447e-05
2.60461e-05
2.60477e-05
2.60494e-05
2.60511e-05
2.60526e-05
2.60539e-05
2.60555e-05
2.60564e-05
2.60568e-05
2.60568e-05
2.60564e-05
2.60562e-05
2.60562e-05
2.6057e-05
2.60591e-05
2.60631e-05
2.60694e-05
2.60799e-05
2.60948e-05
2.61175e-05
2.61461e-05
2.61862e-05
2.62274e-05
2.62749e-05
2.63038e-05
2.63158e-05
2.62936e-05
2.6202e-05
2.61057e-05
2.604e-05
2.604e-05
2.604e-05
2.604e-05
2.604e-05
2.604e-05
2.604e-05
2.60401e-05
2.60401e-05
2.60401e-05
2.60402e-05
2.60403e-05
2.60405e-05
2.60408e-05
2.60412e-05
2.60418e-05
2.60425e-05
2.60435e-05
2.60446e-05
2.60461e-05
2.60475e-05
2.60491e-05
2.60506e-05
2.60519e-05
2.60528e-05
2.6054e-05
2.60546e-05
2.60547e-05
2.60544e-05
2.60539e-05
2.60537e-05
2.60537e-05
2.60546e-05
2.60569e-05
2.60611e-05
2.60681e-05
2.60792e-05
2.60959e-05
2.61195e-05
2.61517e-05
2.61925e-05
2.62391e-05
2.62846e-05
2.63199e-05
2.63245e-05
2.63014e-05
2.62129e-05
2.61075e-05
2.604e-05
2.604e-05
2.604e-05
2.604e-05
2.604e-05
2.604e-05
2.604e-05
2.60401e-05
2.60401e-05
2.60402e-05
2.60402e-05
2.60403e-05
2.60405e-05
2.60408e-05
2.60412e-05
2.60417e-05
2.60425e-05
2.60434e-05
2.60445e-05
2.60459e-05
2.60473e-05
2.60488e-05
2.60501e-05
2.60512e-05
2.60517e-05
2.60524e-05
2.60526e-05
2.60523e-05
2.60519e-05
2.60513e-05
2.60511e-05
2.60511e-05
2.6052e-05
2.60544e-05
2.60589e-05
2.60665e-05
2.60784e-05
2.60968e-05
2.61216e-05
2.61571e-05
2.61989e-05
2.62502e-05
2.62945e-05
2.63344e-05
2.63346e-05
2.63064e-05
2.62205e-05
2.61086e-05
2.604e-05
2.604e-05
2.604e-05
2.604e-05
2.604e-05
2.604e-05
2.60401e-05
2.60401e-05
2.60401e-05
2.60402e-05
2.60402e-05
2.60404e-05
2.60405e-05
2.60408e-05
2.60412e-05
2.60417e-05
2.60425e-05
2.60433e-05
2.60444e-05
2.60458e-05
2.60471e-05
2.60484e-05
2.60496e-05
2.60503e-05
2.60504e-05
2.60507e-05
2.60505e-05
2.605e-05
2.60494e-05
2.60488e-05
2.60485e-05
2.60486e-05
2.60495e-05
2.60518e-05
2.60564e-05
2.60647e-05
2.60774e-05
2.60974e-05
2.61237e-05
2.6162e-05
2.62058e-05
2.62602e-05
2.63056e-05
2.63472e-05
2.63461e-05
2.63132e-05
2.62243e-05
2.61097e-05
2.604e-05
2.604e-05
2.604e-05
2.604e-05
2.604e-05
2.604e-05
2.60401e-05
2.60401e-05
2.60401e-05
2.60402e-05
2.60402e-05
2.60404e-05
2.60405e-05
2.60408e-05
2.60412e-05
2.60417e-05
2.60424e-05
2.60433e-05
2.60443e-05
2.60456e-05
2.60468e-05
2.6048e-05
2.60489e-05
2.60494e-05
2.6049e-05
2.60489e-05
2.60484e-05
2.60476e-05
2.60471e-05
2.60466e-05
2.60465e-05
2.60465e-05
2.60472e-05
2.60493e-05
2.60538e-05
2.60626e-05
2.60762e-05
2.60976e-05
2.61261e-05
2.61663e-05
2.62131e-05
2.62691e-05
2.63176e-05
2.63581e-05
2.63594e-05
2.63195e-05
2.62247e-05
2.61109e-05
2.604e-05
2.604e-05
2.604e-05
2.604e-05
2.604e-05
2.604e-05
2.60401e-05
2.60401e-05
2.60401e-05
2.60402e-05
2.60402e-05
2.60404e-05
2.60405e-05
2.60408e-05
2.60412e-05
2.60417e-05
2.60423e-05
2.60432e-05
2.60441e-05
2.60453e-05
2.60464e-05
2.60475e-05
2.60482e-05
2.60484e-05
2.60476e-05
2.60471e-05
2.60464e-05
2.60456e-05
2.60454e-05
2.60452e-05
2.60454e-05
2.60455e-05
2.60458e-05
2.60472e-05
2.60512e-05
2.60602e-05
2.60749e-05
2.60975e-05
2.61283e-05
2.61703e-05
2.62204e-05
2.62775e-05
2.63298e-05
2.63688e-05
2.63726e-05
2.63294e-05
2.62279e-05
2.61146e-05
2.604e-05
2.604e-05
2.604e-05
2.604e-05
2.604e-05
2.604e-05
2.60401e-05
2.60401e-05
2.60401e-05
2.60402e-05
2.60402e-05
2.60403e-05
2.60405e-05
2.60408e-05
2.60411e-05
2.60416e-05
2.60423e-05
2.6043e-05
2.60439e-05
2.6045e-05
2.6046e-05
2.6047e-05
2.60475e-05
2.60473e-05
2.60462e-05
2.60454e-05
2.60447e-05
2.60443e-05
2.60447e-05
2.60454e-05
2.60462e-05
2.60463e-05
2.60459e-05
2.60459e-05
2.60487e-05
2.60575e-05
2.60732e-05
2.60972e-05
2.61302e-05
2.6174e-05
2.62272e-05
2.62857e-05
2.63413e-05
2.63792e-05
2.63848e-05
2.63372e-05
2.62301e-05
2.61161e-05
2.604e-05
2.604e-05
2.604e-05
2.604e-05
2.604e-05
2.604e-05
2.60401e-05
2.60401e-05
2.60401e-05
2.60402e-05
2.60402e-05
2.60403e-05
2.60405e-05
2.60408e-05
2.60411e-05
2.60415e-05
2.60422e-05
2.60429e-05
2.60437e-05
2.60447e-05
2.60456e-05
2.60464e-05
2.60467e-05
2.60462e-05
2.60448e-05
2.60439e-05
2.60437e-05
2.60443e-05
2.60462e-05
2.60479e-05
2.60491e-05
2.60494e-05
2.60484e-05
2.60464e-05
2.60468e-05
2.60547e-05
2.60712e-05
2.60965e-05
2.61316e-05
2.61774e-05
2.62334e-05
2.62936e-05
2.63521e-05
2.63892e-05
2.63959e-05
2.63448e-05
2.62323e-05
2.61171e-05
2.604e-05
2.604e-05
2.604e-05
2.604e-05
2.604e-05
2.604e-05
2.60401e-05
2.60401e-05
2.60401e-05
2.60402e-05
2.60402e-05
2.60403e-05
2.60405e-05
2.60407e-05
2.60411e-05
2.60415e-05
2.6042e-05
2.60427e-05
2.60435e-05
2.60444e-05
2.60451e-05
2.60457e-05
2.60458e-05
2.60451e-05
2.60436e-05
2.6043e-05
2.60439e-05
2.60461e-05
2.60491e-05
2.60515e-05
2.60532e-05
2.60536e-05
2.60524e-05
2.60493e-05
2.6046e-05
2.60519e-05
2.60688e-05
2.60954e-05
2.61324e-05
2.61803e-05
2.62388e-05
2.6301e-05
2.63615e-05
2.63985e-05
2.64054e-05
2.63513e-05
2.62345e-05
2.61172e-05
2.604e-05
2.604e-05
2.604e-05
2.604e-05
2.604e-05
2.604e-05
2.60401e-05
2.60401e-05
2.60401e-05
2.60402e-05
2.60402e-05
2.60403e-05
2.60405e-05
2.60407e-05
2.6041e-05
2.60414e-05
2.60419e-05
2.60425e-05
2.60432e-05
2.6044e-05
2.60446e-05
2.60451e-05
2.60449e-05
2.6044e-05
2.60426e-05
2.6043e-05
2.60456e-05
2.60489e-05
2.60527e-05
2.60557e-05
2.60579e-05
2.60585e-05
2.60572e-05
2.60535e-05
2.60475e-05
2.60493e-05
2.6066e-05
2.60939e-05
2.61325e-05
2.61827e-05
2.62433e-05
2.63079e-05
2.63693e-05
2.64072e-05
2.64124e-05
2.63565e-05
2.62372e-05
2.61167e-05
2.604e-05
2.604e-05
2.604e-05
2.604e-05
2.604e-05
2.604e-05
2.60401e-05
2.60401e-05
2.60401e-05
2.60402e-05
2.60402e-05
2.60403e-05
2.60405e-05
2.60407e-05
2.6041e-05
2.60413e-05
2.60418e-05
2.60423e-05
2.60429e-05
2.60436e-05
2.60441e-05
2.60444e-05
2.60441e-05
2.6043e-05
2.60422e-05
2.60441e-05
2.60479e-05
2.60521e-05
2.60565e-05
2.60602e-05
2.60628e-05
2.60637e-05
2.60625e-05
2.60586e-05
2.60511e-05
2.60473e-05
2.60627e-05
2.60919e-05
2.61319e-05
2.61845e-05
2.62465e-05
2.63142e-05
2.63751e-05
2.64155e-05
2.64166e-05
2.63602e-05
2.62408e-05
2.61163e-05
2.604e-05
2.604e-05
2.604e-05
2.604e-05
2.604e-05
2.604e-05
2.60401e-05
2.60401e-05
2.60401e-05
2.60402e-05
2.60402e-05
2.60403e-05
2.60405e-05
2.60407e-05
2.60409e-05
2.60413e-05
2.60417e-05
2.60421e-05
2.60426e-05
2.60432e-05
2.60436e-05
2.60437e-05
2.60432e-05
2.60422e-05
2.60426e-05
2.60459e-05
2.60505e-05
2.60553e-05
2.60605e-05
2.60647e-05
2.60678e-05
2.60691e-05
2.60681e-05
2.60641e-05
2.6056e-05
2.60468e-05
2.60592e-05
2.60894e-05
2.61304e-05
2.61856e-05
2.62485e-05
2.63199e-05
2.6379e-05
2.64234e-05
2.64182e-05
2.6363e-05
2.62454e-05
2.6117e-05
2.604e-05
2.604e-05
2.604e-05
2.604e-05
2.604e-05
2.604e-05
2.60401e-05
2.60401e-05
2.60401e-05
2.60402e-05
2.60402e-05
2.60403e-05
2.60405e-05
2.60406e-05
2.60409e-05
2.60412e-05
2.60415e-05
2.60419e-05
2.60423e-05
2.60428e-05
2.6043e-05
2.6043e-05
2.60424e-05
2.60417e-05
2.60437e-05
2.60479e-05
2.60531e-05
2.60586e-05
2.60644e-05
2.60693e-05
2.6073e-05
2.60747e-05
2.60739e-05
2.607e-05
2.60616e-05
2.60491e-05
2.60556e-05
2.60862e-05
2.61282e-05
2.61858e-05
2.62493e-05
2.63244e-05
2.63814e-05
2.64303e-05
2.64184e-05
2.63652e-05
2.62494e-05
2.61193e-05
2.604e-05
2.604e-05
2.604e-05
2.604e-05
2.604e-05
2.604e-05
2.60401e-05
2.60401e-05
2.60401e-05
2.60402e-05
2.60402e-05
2.60403e-05
2.60404e-05
2.60406e-05
2.60408e-05
2.60411e-05
2.60414e-05
2.60417e-05
2.6042e-05
2.60423e-05
2.60424e-05
2.60423e-05
2.60417e-05
2.60418e-05
2.60451e-05
2.60499e-05
2.60557e-05
2.60618e-05
2.60683e-05
2.60739e-05
2.60782e-05
2.60804e-05
2.608e-05
2.60762e-05
2.60677e-05