/*--------------------------------*- C++ -*----------------------------------*\
  =========                 |
  \\      /  F ield         | OpenFOAM: The Open Source CFD Toolbox
   \\    /   O peration     | Website:  https://openfoam.org
    \\  /    A nd           | Version:  10
     \\/     M anipulation  |
\*---------------------------------------------------------------------------*/
FoamFile
{
    format      ascii;
    class       volScalarField;
    location    "10";
    object      p;
}
// * * * * * * * * * * * * * * * * * * * * * * * * * * * * * * * * * * * * * //

dimensions      [0 2 -2 0 0 0 0];

internalField   nonuniform List<scalar> 
38016
(
3.48298
1.60127
2.95494
2.44674
2.92346
2.99878
3.25413
3.37181
3.71191
4.02193
4.61462
7.26789
14.1725
29.5069
51.4165
80.3754
96.0902
83.0906
31.3944
-50.9092
-140.757
-208.817
-220.2
-229.856
-232.499
-228.226
-236.16
-245.047
-257.3
-270.526
-284.025
-297.137
-309.951
-322.156
-333.884
-345.126
-356.09
-366.821
-377.324
-387.745
-398.031
-408.964
-418.395
-431.15
-440.294
-454.356
-466.599
-482.305
3.51617
1.61926
2.9817
2.46906
2.94704
3.02115
3.27439
3.38846
3.72242
4.01944
4.60559
7.26404
14.2386
29.8283
52.2258
81.8531
98.1273
85.0757
32.3777
-51.6997
-143.359
-212.593
-224.918
-234.616
-236.895
-232.304
-240.006
-248.85
-261.166
-274.501
-288.146
-301.447
-314.446
-326.875
-338.829
-350.318
-361.551
-372.577
-383.441
-394.284
-405.038
-416.588
-426.54
-440.222
-449.978
-465.188
-478.412
-495.315
3.54916
1.63719
3.00832
2.49129
2.9705
3.04344
3.2945
3.40509
3.73272
4.01679
4.59649
7.26025
14.3071
30.1497
53.0393
83.3238
100.141
87.0072
33.2789
-52.5718
-145.987
-216.221
-229.47
-239.003
-240.952
-236.201
-243.743
-252.621
-265.052
-278.533
-292.352
-305.865
-319.071
-331.744
-343.954
-355.734
-367.295
-378.699
-390.03
-401.426
-412.808
-425.137
-435.833
-450.574
-461.148
-477.607
-491.729
-509.66
3.58218
1.65524
3.03501
2.51365
2.99401
3.06581
3.31462
3.4218
3.74289
4.01394
4.58711
7.25594
14.3769
30.4713
53.8612
84.8033
102.164
88.9357
34.152
-53.4945
-148.658
-219.809
-234.033
-243.305
-244.815
-239.924
-247.287
-256.207
-268.754
-282.389
-296.394
-310.136
-323.575
-336.526
-349.038
-361.173
-373.143
-385.03
-396.95
-409.033
-421.201
-434.426
-446.046
-461.822
-473.356
-490.783
-505.685
-524.142
3.61513
1.67329
3.06167
2.53601
3.01746
3.08815
3.33465
3.43848
3.75282
4.01077
4.57716
7.25069
14.4474
30.7927
54.691
86.2916
104.197
90.8607
34.9929
-54.478
-151.395
-223.413
-238.68
-247.65
-248.659
-243.653
-250.841
-259.818
-272.485
-286.269
-300.456
-314.421
-328.091
-341.318
-354.142
-366.652
-379.065
-391.483
-404.041
-416.858
-429.851
-443.933
-456.476
-472.997
-485.354
-503.165
-518.328
-536.642
3.64803
1.69141
3.08835
2.55843
3.04091
3.11052
3.35464
3.4552
3.76258
4.00736
4.56673
7.24458
14.5183
31.1134
55.5279
87.7884
106.241
92.7866
35.8102
-55.5111
-154.183
-227.024
-243.38
-251.99
-252.446
-247.332
-254.333
-263.372
-276.157
-290.093
-304.465
-318.658
-332.569
-346.087
-359.245
-372.161
-385.056
-398.048
-411.275
-424.835
-438.629
-453.443
-466.775
-483.665
-496.522
-514.141
-528.991
-546.526
3.6809
1.70957
3.11501
2.58089
3.06434
3.13289
3.37459
3.47195
3.77214
4.00371
4.55573
7.23746
14.5895
31.4332
56.3715
89.2941
108.298
94.717
36.6102
-56.5833
-157.013
-230.648
-248.117
-256.316
-256.176
-250.954
-257.761
-266.864
-279.768
-293.856
-308.42
-322.846
-337.014
-350.838
-364.354
-377.707
-391.114
-404.707
-418.604
-432.867
-447.364
-462.709
-476.574
-493.418
-506.343
-523.255
-537.25
-553.481
3.71372
1.72778
3.14168
2.60339
3.08775
3.15527
3.3945
3.48871
3.78151
3.99979
4.54415
7.22928
14.6606
31.7517
57.2212
90.8079
110.368
96.6526
37.3934
-57.6974
-159.889
-234.3
-252.911
-260.665
-259.892
-254.573
-261.188
-270.367
-283.394
-297.638
-312.395
-327.057
-341.486
-355.623
-369.511
-383.315
-397.246
-411.431
-425.954
-440.82
-455.842
-471.448
-485.505
-501.886
-514.445
-530.229
-542.965
-557.54
3.7465
1.74604
3.16835
2.62593
3.11114
3.17766
3.41437
3.50552
3.79069
3.99565
4.53197
7.22004
14.7316
32.0692
58.077
92.3308
112.451
98.5953
38.1627
-58.8479
-162.808
-237.984
-257.734
-265.002
-263.563
-258.14
-264.562
-273.817
-286.969
-301.372
-316.332
-331.238
-345.945
-360.414
-374.696
-388.972
-403.435
-418.193
-433.271
-448.603
-463.928
-479.502
-493.401
-508.969
-520.806
-535.178
-546.441
-559.198
3.77923
1.76434
3.19501
2.64851
3.13452
3.20005
3.4342
3.52235
3.7997
3.99127
4.51919
7.2097
14.8023
32.3852
58.9384
93.8622
114.549
100.547
38.9194
-60.036
-165.772
-241.708
-262.596
-269.344
-267.212
-261.683
-267.914
-277.252
-290.533
-305.099
-320.267
-335.423
-350.417
-365.227
-379.917
-394.668
-409.645
-424.918
-440.435
-456.042
-471.406
-486.649
-500.051
-514.542
-525.393
-538.217
-547.951
-558.906
3.81193
1.78269
3.22167
2.67113
3.15787
3.22245
3.45401
3.53922
3.80852
3.98667
4.50577
7.19818
14.8724
32.6996
59.8049
95.4024
116.661
102.508
39.6665
-61.257
-168.78
-245.479
-267.483
-273.68
-270.831
-265.185
-271.23
-280.653
-294.066
-308.801
-324.183
-339.597
-354.89
-370.054
-385.161
-400.382
-415.84
-431.542
-447.347
-463.014
-478.148
-492.791
-505.433
-518.676
-528.412
-539.675
-547.957
-557.249
3.84457
1.80108
3.24834
2.69379
3.18122
3.24486
3.47378
3.55612
3.81718
3.98186
4.49172
7.18543
14.9418
33.012
60.6759
96.9508
118.788
104.482
40.4082
-62.5081
-171.828
-249.299
-272.397
-278.012
-274.422
-268.65
-274.513
-284.025
-297.574
-312.482
-328.085
-343.765
-359.366
-374.893
-390.42
-406.09
-421.967
-437.982
-453.897
-469.394
-484.052
-497.875
-509.583
-521.502
-530.109
-539.894
-546.886
-554.726
3.87719
1.81953
3.27499
2.7165
3.20454
3.26728
3.49353
3.57308
3.82568
3.97684
4.47698
7.17134
15.0099
33.322
61.5502
98.5074
120.932
106.472
41.1492
-63.7828
-174.915
-253.174
-277.329
-282.336
-277.986
-272.073
-277.761
-287.364
-301.053
-316.14
-331.97
-347.923
-363.842
-379.738
-395.676
-411.757
-427.97
-444.155
-459.989
-475.097
-489.072
-501.929
-512.607
-523.224
-530.754
-539.213
-545.102
-551.726
3.90974
1.83802
3.30165
2.73924
3.22785
3.2897
3.51326
3.59007
3.83402
3.97161
4.46153
7.15577
15.0764
33.6287
62.4271
100.071
123.093
108.483
41.8966
-65.0749
-178.036
-257.102
-282.283
-286.654
-281.523
-275.455
-280.975
-290.669
-304.502
-319.773
-335.838
-352.072
-368.316
-384.58
-400.909
-417.344
-433.786
-449.984
-465.543
-480.075
-493.215
-505.029
-514.654
-524.051
-530.596
-537.902
-542.877
-548.497
3.94227
1.85656
3.32829
2.76202
3.25114
3.31213
3.53297
3.60712
3.8422
3.96617
4.44531
7.13859
15.1408
33.9318
63.3047
101.642
125.273
110.517
42.6578
-66.3744
-181.185
-261.089
-287.251
-290.964
-285.036
-278.794
-284.152
-293.939
-307.92
-323.382
-339.687
-356.208
-372.781
-389.406
-406.094
-422.807
-439.353
-455.398
-470.51
-484.318
-496.534
-507.289
-515.904
-524.187
-529.87
-536.188
-540.411
-545.209
3.97474
1.87514
3.35494
2.78485
3.27442
3.33456
3.55266
3.62422
3.85025
3.96052
4.42829
7.11956
15.2024
34.2296
64.1819
103.218
127.473
112.581
43.4435
-67.6712
-184.356
-265.129
-292.237
-295.267
-288.524
-282.088
-287.291
-297.171
-311.305
-326.963
-343.516
-360.33
-377.232
-394.201
-411.198
-428.096
-444.611
-460.346
-474.865
-487.849
-499.111
-508.842
-516.532
-523.833
-528.792
-534.289
-537.919
-542.062
4.00718
1.89378
3.38158
2.80771
3.29768
3.357
3.57235
3.64138
3.85816
3.95467
4.41038
7.09852
15.2606
34.5216
65.0561
104.799
129.693
114.682
44.265
-68.9506
-187.539
-269.226
-297.236
-299.564
-291.989
-285.336
-290.392
-300.364
-314.655
-330.517
-347.321
-364.433
-381.658
-398.945
-416.187
-433.163
-449.509
-464.792
-478.61
-490.721
-501.041
-509.819
-516.683
-523.141
-527.5
-532.321
-535.487
-539.111
4.03956
1.91245
3.40821
2.83061
3.32092
3.37945
3.59203
3.6586
3.86594
3.9486
4.39153
7.07512
15.3145
34.8057
65.9254
106.383
131.937
116.827
45.1372
-70.1971
-190.723
-273.372
-302.253
-303.858
-295.432
-288.54
-293.453
-303.516
-317.968
-334.04
-351.102
-368.511
-386.048
-403.614
-421.022
-437.963
-454.008
-468.724
-481.773
-493.002
-502.426
-510.342
-516.484
-522.222
-526.08
-530.34
-533.13
-536.331
4.07191
1.93119
3.43484
2.85356
3.34415
3.4019
3.6117
3.67589
3.87361
3.94232
4.37164
7.04914
15.3631
35.0807
66.7865
107.968
134.205
119.025
46.0763
-71.3902
-193.893
-277.568
-307.282
-308.151
-298.857
-291.698
-296.473
-306.626
-321.242
-337.53
-354.853
-372.558
-390.386
-408.179
-425.665
-442.454
-458.083
-472.149
-484.396
-494.769
-503.364
-510.519
-516.034
-521.168
-524.614
-528.411
-530.899
-533.751
4.10419
1.94996
3.46146
2.87654
3.36737
3.42436
3.63138
3.69324
3.88117
3.93582
4.35064
7.02013
15.4055
35.3441
67.6368
109.55
136.5
121.288
47.103
-72.5075
-197.034
-281.803
-312.331
-312.449
-302.266
-294.811
-299.45
-309.69
-324.475
-340.985
-358.571
-376.564
-394.654
-412.612
-430.079
-446.606
-461.723
-475.087
-486.532
-496.1
-503.941
-510.429
-515.404
-520.032
-523.14
-526.562
-528.819
-531.402
4.13645
1.96879
3.48807
2.89957
3.39057
3.44683
3.65106
3.71067
3.88865
3.9291
4.32843
6.98779
15.4402
35.5942
68.4716
111.129
138.823
123.625
48.2393
-73.5208
-200.125
-286.074
-317.396
-316.756
-305.662
-297.88
-302.384
-312.708
-327.664
-344.402
-362.25
-380.517
-398.829
-416.88
-434.231
-450.396
-464.932
-477.573
-488.244
-497.068
-504.236
-510.143
-514.655
-518.849
-521.672
-524.773
-526.836
-529.191
4.16864
1.98767
3.51468
2.92264
3.41376
3.46931
3.67075
3.72818
3.89605
3.92214
4.30488
6.95156
15.4661
35.8275
69.2874
112.699
141.176
126.051
49.5124
-74.3993
-203.142
-290.37
-322.485
-321.081
-309.051
-300.906
-305.273
-315.678
-330.806
-347.775
-365.881
-384.402
-402.888
-420.953
-438.093
-453.815
-467.724
-479.644
-489.585
-497.735
-504.313
-509.717
-513.837
-517.662
-520.246
-523.073
-524.974
-527.129
4.2008
2.0066
3.54127
2.94574
3.43694
3.4918
3.69047
3.74578
3.9034
3.91497
4.2799
6.91108
15.4815
36.0417
70.0783
114.257
143.562
128.58
50.9515
-75.1055
-206.057
-294.679
-327.596
-325.431
-312.439
-303.892
-308.115
-318.596
-333.897
-351.1
-369.456
-388.202
-406.806
-424.803
-441.646
-456.859
-470.119
-481.338
-490.604
-498.147
-504.213
-509.176
-512.966
-516.467
-518.85
-521.434
-523.189
-525.165
4.23289
2.02558
3.56785
2.9689
3.46011
3.5143
3.7102
3.76347
3.91071
3.90755
4.25335
6.86564
15.4848
36.2327
70.8395
115.798
145.982
131.231
52.5912
-75.5982
-208.837
-298.988
-332.736
-329.818
-315.832
-306.839
-310.91
-321.46
-336.933
-354.37
-372.962
-391.899
-410.557
-428.407
-444.878
-459.537
-472.144
-482.692
-491.341
-498.338
-503.957
-508.535
-512.045
-515.266
-517.485
-519.862
-521.505
-523.334
4.26495
2.04462
3.59442
2.99209
3.48326
3.5368
3.72996
3.78126
3.91803
3.89992
4.22512
6.81483
15.4741
36.3972
71.5637
117.316
148.436
134.017
54.4682
-75.8287
-211.444
-303.279
-337.908
-334.253
-319.241
-309.752
-313.656
-324.268
-339.909
-357.576
-376.385
-395.47
-414.117
-431.745
-447.785
-461.863
-473.827
-483.745
-491.829
-498.341
-503.565
-507.811
-511.077
-514.059
-516.132
-518.325
-519.86
-521.55
4.29694
2.0637
3.62099
3.01532
3.50641
3.55933
3.74976
3.79917
3.92534
3.89206
4.19507
6.75785
15.4473
36.5302
72.2444
118.803
150.927
136.961
56.6248
-75.7436
-213.831
-307.532
-343.117
-338.753
-322.674
-312.634
-316.352
-327.016
-342.818
-360.708
-379.71
-398.896
-417.467
-434.806
-450.37
-463.855
-475.199
-484.529
-492.1
-498.182
-503.059
-507.023
-510.081
-512.866
-514.822
-516.871
-518.327
-519.915
4.32889
2.08285
3.64753
3.0386
3.52955
3.58187
3.76961
3.8172
3.93272
3.884
4.16309
6.69422
15.4025
36.6279
72.8726
120.253
153.453
140.08
59.1057
-75.2816
-215.948
-311.72
-348.365
-343.331
-326.146
-315.489
-318.997
-329.699
-345.653
-363.754
-382.92
-402.156
-420.588
-437.584
-452.642
-465.54
-476.289
-485.075
-492.174
-497.868
-502.429
-506.143
-509.01
-511.62
-513.467
-515.384
-516.763
-518.255
4.36077
2.10205
3.67406
3.06192
3.55268
3.60442
3.7895
3.83537
3.94017
3.87575
4.12904
6.62308
15.3372
36.6842
73.4403
121.654
156.013
143.394
61.9601
-74.3759
-217.734
-315.811
-353.657
-348.009
-329.671
-318.325
-321.589
-332.314
-348.407
-366.702
-385.997
-405.231
-423.469
-440.08
-454.62
-466.945
-477.134
-485.418
-492.082
-497.421
-501.686
-505.164
-507.846
-510.287
-512.021
-513.808
-515.108
-516.495
4.39261
2.12132
3.70057
3.08528
3.5758
3.627
3.80946
3.85369
3.94775
3.86734
4.09287
6.54398
15.2493
36.6947
73.9367
122.996
158.603
146.922
65.2381
-72.952
-219.119
-319.769
-358.992
-352.805
-333.266
-321.148
-324.127
-334.855
-351.068
-369.536
-388.924
-408.106
-426.101
-442.3
-456.323
-468.102
-477.774
-485.601
-491.878
-496.897
-500.9
-504.157
-506.67
-508.944
-510.568
-512.229
-513.448
-514.743
4.42438
2.14063
3.72707
3.10869
3.59892
3.6496
3.82949
3.87217
3.95548
3.85881
4.05445
6.45605
15.1363
36.6527
74.3523
124.266
161.218
150.683
68.9937
-70.9302
-220.025
-323.545
-364.37
-357.743
-336.952
-323.966
-326.61
-337.316
-353.627
-372.242
-391.683
-410.767
-428.484
-444.258
-457.778
-469.045
-478.247
-485.667
-491.607
-496.354
-500.142
-503.227
-505.616
-507.775
-509.339
-510.922
-512.112
-513.353
4.4561
2.16002
3.75355
3.13214
3.62204
3.67222
3.8496
3.89084
3.96344
3.85021
4.01379
6.3589
14.9959
36.553
74.6743
125.45
163.849
154.69
73.2796
-68.2231
-220.362
-327.082
-369.782
-362.844
-340.751
-326.791
-329.038
-339.689
-356.072
-374.802
-394.26
-413.206
-430.62
-445.968
-459.011
-469.813
-478.594
-485.659
-491.309
-495.826
-499.437
-502.382
-504.668
-506.727
-508.228
-509.731
-510.872
-512.05
4.48774
2.17946
3.78001
3.15564
3.64515
3.69488
3.8698
3.90972
3.97166
3.84162
3.97082
6.25178
14.8257
36.3889
74.8917
126.531
166.486
158.957
78.1497
-64.7389
-220.029
-330.311
-375.215
-368.134
-344.69
-329.635
-331.411
-341.969
-358.39
-377.202
-396.64
-415.415
-432.514
-447.451
-460.055
-470.441
-478.86
-485.625
-491.035
-495.366
-498.837
-501.675
-503.895
-505.892
-507.377
-508.846
-509.992
-511.154
4.51933
2.19898
3.80644
3.17918
3.66827
3.71756
3.89011
3.92881
3.98023
3.83312
3.92566
6.13447
14.6237
36.1548
74.9904
127.489
169.11
163.489
83.6533
-60.381
-218.912
-333.148
-380.645
-373.633
-348.8
-332.512
-333.729
-344.147
-360.568
-379.428
-398.811
-417.394
-434.177
-448.727
-460.936
-470.963
-479.077
-485.597
-490.815
-494.998
-498.357
-501.105
-503.264
-505.198
-506.653
-508.072
-509.199
-510.323
4.55084
2.21856
3.83286
3.20277
3.69139
3.74029
3.91054
3.94816
3.98917
3.82482
3.87832
6.00643
14.3879
35.8441
74.9581
128.304
171.703
168.286
89.8366
-55.0512
-216.885
-335.49
-386.036
-379.361
-353.112
-335.442
-335.995
-346.216
-362.594
-381.463
-400.765
-419.141
-435.619
-449.814
-461.677
-471.4
-479.264
-485.59
-490.657
-494.727
-497.995
-500.675
-502.78
-504.663
-506.091
-507.47
-508.58
-509.679
4.58229
2.23821
3.85923
3.2264
3.71452
3.76305
3.93109
3.96777
3.99861
3.81685
3.82906
5.86778
14.1166
35.4519
74.7801
128.953
174.236
173.34
96.7359
-48.6511
-213.813
-337.219
-391.336
-385.329
-357.663
-338.446
-338.213
-348.168
-364.456
-383.296
-402.494
-420.66
-436.851
-450.73
-462.292
-471.758
-479.414
-485.583
-490.523
-494.501
-497.685
-500.301
-502.344
-504.17
-505.553
-506.875
-507.945
-508.992
4.61365
2.25793
3.8856
3.25009
3.73765
3.78586
3.95179
3.98769
4.00858
3.80936
3.77804
5.71833
13.8088
34.9724
74.444
129.411
176.68
178.631
104.379
-41.0861
-209.546
-338.192
-396.473
-391.545
-362.489
-341.551
-340.39
-349.998
-366.141
-384.915
-403.991
-421.952
-437.884
-451.487
-462.794
-472.041
-479.518
-485.547
-490.376
-494.27
-497.382
-499.942
-501.934
-503.714
-505.06
-506.334
-507.373
-508.376
4.64495
2.27774
3.91191
3.27382
3.76079
3.80872
3.97264
4.00793
4.0192
3.80255
3.72568
5.55865
13.4638
34.402
73.9359
129.652
178.994
184.128
112.776
-32.2696
-203.931
-338.247
-401.35
-397.996
-367.628
-344.784
-342.533
-351.699
-367.638
-386.31
-405.253
-423.022
-438.728
-452.099
-463.197
-472.262
-479.589
-485.49
-490.217
-494.023
-497.07
-499.57
-501.526
-503.262
-504.585
-505.829
-506.852
-507.839
4.67616
2.29761
3.93821
3.29761
3.78395
3.83163
3.99366
4.02854
4.03054
3.79658
3.67231
5.38904
13.0815
33.7368
73.2446
129.647
181.136
189.789
121.922
-22.1268
-196.808
-337.199
-405.843
-404.659
-373.116
-348.18
-344.658
-353.269
-368.939
-387.47
-406.276
-423.872
-439.39
-452.577
-463.511
-472.436
-479.652
-485.457
-490.112
-493.851
-496.855
-499.311
-501.251
-502.966
-504.295
-505.532
-506.573
-507.558
4.70729
2.31757
3.96447
3.32144
3.80712
3.85461
4.01487
4.04953
4.04271
3.79173
3.61855
5.21066
12.6627
32.9754
72.3585
129.37
183.055
195.552
131.79
-10.6021
-188.019
-334.84
-409.793
-411.482
-378.98
-351.776
-346.778
-354.708
-370.034
-388.389
-407.053
-424.503
-439.877
-452.928
-463.748
-472.573
-479.716
-485.458
-490.08
-493.782
-496.773
-499.201
-501.134
-502.815
-504.133
-505.339
-506.365
-507.328
4.73832
2.33761
3.99069
3.34532
3.83031
3.87765
4.03627
4.07094
4.05579
3.78819
3.5649
5.02442
12.2088
32.1171
71.2702
128.792
184.698
201.346
142.328
2.33686
-177.415
-330.945
-413.008
-418.386
-385.24
-355.612
-348.917
-356.016
-370.917
-389.056
-407.581
-424.915
-440.192
-453.161
-463.921
-472.693
-479.803
-485.509
-490.116
-493.8
-496.8
-499.231
-501.192
-502.891
-504.248
-505.479
-506.549
-507.533
4.76928
2.35774
4.01686
3.36926
3.85351
3.90075
4.05789
4.09279
4.0699
3.78628
3.51218
4.83209
11.7223
31.1635
69.9728
127.889
186.003
207.08
153.455
16.6906
-164.861
-325.276
-415.259
-425.252
-391.898
-359.725
-351.096
-357.199
-371.581
-389.465
-407.852
-425.103
-440.333
-453.281
-464.041
-472.823
-479.956
-485.677
-490.306
-493.996
-497.001
-499.423
-501.377
-503.054
-504.399
-505.607
-506.663
-507.629
4.80012
2.37796
4.04301
3.39325
3.87675
3.92394
4.07973
4.11513
4.0851
3.78622
3.46103
4.6352
11.2064
30.1179
68.4646
126.637
186.912
212.654
165.065
32.4242
-150.248
-317.589
-416.281
-431.926
-398.935
-364.153
-353.346
-358.265
-372.025
-389.605
-407.857
-425.058
-440.295
-453.283
-464.105
-472.961
-480.177
-485.987
-490.702
-494.482
-497.562
-500.065
-502.085
-503.83
-505.239
-506.505
-507.625
-508.643
4.83087
2.39828
4.06909
3.4173
3.9
3.9472
4.1018
4.13797
4.10152
3.78835
3.41243
4.43613
10.6655
28.9861
66.7458
125.017
187.362
217.952
177.017
49.4585
-133.503
-307.645
-415.777
-438.199
-406.3
-368.924
-355.694
-359.224
-372.242
-389.468
-407.582
-424.768
-440.063
-453.153
-464.096
-473.089
-480.43
-486.373
-491.191
-495.083
-498.239
-500.826
-502.898
-504.696
-506.14
-507.432
-508.574
-509.608
4.86151
2.4187
4.09514
3.44141
3.92329
3.97055
4.12412
4.16134
4.11922
3.79288
3.36713
4.23695
10.1044
27.7756
64.8226
123.016
187.297
222.852
189.146
67.6694
-114.599
-295.22
-413.425
-443.819
-413.905
-374.054
-358.172
-360.09
-372.233
-389.042
-407.013
-424.213
-439.616
-452.869
-463.991
-473.178
-480.692
-486.812
-491.768
-495.793
-499.045
-501.722
-503.858
-505.717
-507.211
-508.545
-509.731
-510.8
4.89204
2.43922
4.12112
3.46557
3.9466
3.99399
4.1467
4.18526
4.13831
3.80017
3.32616
4.04047
9.52916
26.4966
62.7044
120.629
186.662
227.224
201.258
86.8815
-93.5659
-280.125
-408.886
-448.479
-421.615
-379.54
-360.803
-360.877
-371.995
-388.314
-406.127
-423.366
-438.924
-452.391
-463.746
-473.168
-480.899
-487.217
-492.348
-496.525
-499.911
-502.698
-504.932
-506.869
-508.434
-509.822
-511.067
-512.182
4.92244
2.45985
4.14706
3.4898
3.96996
4.01753
4.16955
4.20975
4.15883
3.81039
3.2903
3.84909
8.94618
25.161
60.4064
117.856
185.413
230.941
213.141
106.872
-70.4983
-262.216
-401.825
-451.832
-429.246
-385.352
-363.609
-361.598
-371.527
-387.269
-404.9
-422.195
-437.948
-451.677
-463.314
-473.008
-480.986
-487.516
-492.829
-497.154
-500.665
-503.553
-505.872
-507.877
-509.503
-510.937
-512.229
-513.381
4.95273
2.48059
4.17292
3.51409
3.99334
4.04117
4.19267
4.23483
4.18087
3.82384
3.26056
3.66582
8.36253
23.7826
57.9477
114.707
183.517
233.881
224.563
127.37
-45.5633
-241.414
-391.92
-453.49
-436.553
-391.424
-366.593
-362.266
-370.826
-385.89
-403.301
-420.658
-436.637
-450.67
-462.631
-472.635
-480.892
-487.66
-493.172
-497.658
-501.301
-504.297
-506.705
-508.786
-510.479
-511.97
-513.321
-514.524
4.98287
2.50145
4.19873
3.53845
4.01677
4.06491
4.21608
4.26051
4.20443
3.84065
3.2376
3.49308
7.78546
22.3769
55.3523
111.203
180.955
235.932
235.292
148.065
-19.0006
-217.717
-378.889
-453.043
-443.241
-397.651
-369.747
-362.886
-369.888
-384.156
-401.297
-418.709
-434.935
-449.304
-461.628
-471.976
-480.544
-487.575
-493.308
-497.97
-501.755
-504.863
-507.359
-509.511
-511.265
-512.803
-514.203
-515.444
5.01289
2.52244
4.22446
3.56287
4.04024
4.08876
4.23977
4.28678
4.22959
3.86106
3.22232
3.33376
7.22239
20.9602
52.6478
107.372
177.722
237
245.095
168.613
8.87511
-191.215
-362.508
-450.075
-448.956
-403.879
-373.032
-363.453
-368.702
-382.043
-398.845
-416.294
-432.777
-447.51
-460.227
-470.951
-479.859
-487.181
-493.163
-498.028
-501.986
-505.232
-507.844
-510.091
-511.93
-513.535
-515.002
-516.299
5.04274
2.54355
4.25014
3.58737
4.06375
4.11273
4.26375
4.31366
4.25631
3.8851
3.21517
3.18995
6.6805
19.5494
49.865
103.252
173.833
237.014
253.754
188.656
37.684
-162.097
-342.636
-444.188
-453.306
-409.906
-376.385
-363.952
-367.255
-379.523
-395.903
-413.354
-430.096
-445.212
-458.355
-469.492
-478.78
-486.427
-492.692
-497.784
-501.938
-505.339
-508.084
-510.439
-512.377
-514.059
-515.605
-516.97
5.07245
2.5648
4.27571
3.61194
4.0873
4.13682
4.28802
4.34114
4.28463
3.91292
3.21682
3.06407
6.16666
18.1614
47.0369
98.8873
169.318
235.928
261.074
207.824
66.9889
-130.651
-319.23
-435.022
-455.867
-415.474
-379.705
-364.349
-365.524
-376.564
-392.422
-409.828
-426.817
-442.331
-455.927
-467.514
-477.223
-485.244
-491.839
-497.21
-501.603
-505.198
-508.107
-510.597
-512.647
-514.421
-516.054
-517.497
5.10199
2.58619
4.30123
3.63659
4.11091
4.16102
4.31258
4.36921
4.3145
3.94444
3.22745
2.95762
5.68705
16.8126
44.1976
94.3315
164.226
233.73
266.894
225.764
96.3131
-97.2642
-292.36
-422.29
-456.206
-420.284
-382.854
-364.591
-363.478
-373.13
-388.351
-405.647
-422.862
-438.782
-452.857
-464.927
-475.088
-483.512
-490.46
-496.139
-500.799
-504.626
-507.736
-510.403
-512.611
-514.527
-516.292
-517.865
5.13136
2.60773
4.32663
3.66132
4.13456
4.18535
4.33743
4.39785
4.34592
3.97975
3.24745
2.87229
5.24711
15.5183
41.3811
89.6405
158.621
230.434
271.094
242.146
125.157
-62.4117
-262.221
-405.792
-453.902
-423.998
-385.657
-364.6
-361.074
-369.177
-383.634
-400.742
-418.148
-434.474
-449.053
-461.648
-472.303
-481.171
-488.497
-494.495
-499.415
-503.463
-506.752
-509.577
-511.917
-513.952
-515.827
-517.507
5.16054
2.62943
4.35196
3.68614
4.15826
4.20981
4.36258
4.42706
4.3788
4.01866
3.27671
2.80878
4.85134
14.2922
38.62
84.8742
152.581
226.09
273.602
256.683
153.023
-26.6376
-229.13
-385.443
-448.575
-426.253
-387.901
-364.276
-358.259
-364.659
-378.213
-395.039
-412.585
-429.305
-444.398
-457.55
-468.745
-478.116
-485.881
-492.258
-497.487
-501.794
-505.284
-508.283
-510.763
-512.922
-514.912
-516.702
5.18953
2.65129
4.37717
3.71104
4.18202
4.2344
4.38801
4.45682
4.41313
4.06116
3.31532
2.76792
4.50313
13.1461
35.9449
80.0918
146.192
220.774
274.394
269.143
179.432
9.46467
-193.521
-361.283
-439.909
-426.681
-389.348
-363.494
-354.963
-359.523
-372.031
-388.465
-406.085
-423.169
-438.771
-452.485
-464.231
-474.122
-482.352
-489.148
-494.734
-499.353
-503.099
-506.32
-508.98
-511.293
-513.419
-515.338
5.21831
2.67332
4.4023
3.73604
4.20583
4.25912
4.41372
4.4871
4.4488
4.107
3.36289
2.7496
4.20486
12.0894
33.3829
75.352
139.551
214.589
273.498
279.36
203.952
45.2793
-155.93
-333.491
-427.677
-424.93
-389.735
-362.11
-351.11
-353.714
-365.029
-380.95
-398.565
-415.974
-432.073
-446.354
-458.655
-469.064
-477.744
-484.94
-490.865
-495.786
-499.787
-503.239
-506.096
-508.588
-510.881
-512.961
5.24688
2.69554
4.42729
3.76114
4.22969
4.28398
4.43972
4.51788
4.48578
4.15611
3.41926
2.7538
3.9577
11.1294
30.9575
70.7089
132.752
207.658
270.991
287.236
226.209
80.1952
-116.97
-302.374
-411.761
-420.679
-388.796
-359.964
-346.611
-347.173
-357.151
-372.426
-389.941
-407.622
-424.206
-439.068
-451.958
-462.929
-472.097
-479.725
-485.997
-491.222
-495.463
-499.134
-502.171
-504.834
-507.288
-509.532
5.27521
2.71794
4.45218
3.78634
4.25362
4.30898
4.46598
4.54914
4.52394
4.20817
3.48383
2.77967
3.76189
10.2706
28.6872
66.2119
125.894
200.119
266.991
292.746
245.91
113.634
-77.307
-268.367
-392.164
-413.671
-386.271
-356.888
-341.372
-339.843
-348.347
-362.834
-380.138
-398.022
-415.056
-430.492
-443.986
-455.553
-465.263
-473.391
-480.085
-485.69
-490.233
-494.176
-497.43
-500.29
-502.915
-505.321
5.30331
2.74055
4.47692
3.81165
4.27759
4.33413
4.49253
4.58087
4.56327
4.26308
3.55626
2.82653
3.61656
9.51536
26.5863
61.9031
119.068
192.117
261.652
295.936
262.844
145.076
-37.6277
-232.004
-369.017
-403.719
-381.922
-352.713
-335.298
-331.668
-338.574
-352.122
-369.09
-387.091
-404.53
-420.517
-434.609
-446.758
-457.006
-465.615
-472.738
-478.723
-483.601
-487.851
-491.387
-494.506
-497.389
-500.056
5.33113
2.76336
4.50154
3.83708
4.30163
4.35943
4.51934
4.61304
4.60362
4.32051
3.63582
2.89293
3.52015
8.86365
24.6639
57.8178
112.357
183.8
255.154
296.914
276.896
174.077
1.39281
-193.902
-342.577
-390.73
-375.551
-347.282
-328.298
-322.601
-327.798
-340.256
-356.748
-374.765
-392.553
-409.068
-423.77
-436.514
-447.332
-456.422
-463.979
-470.305
-475.482
-479.966
-483.709
-486.987
-490.027
-492.827
5.35869
2.7864
4.526
3.86263
4.32572
4.38488
4.54643
4.64563
4.64499
4.38035
3.72204
2.97775
3.4702
8.31365
22.9251
53.9825
105.836
175.311
247.696
295.842
288.037
200.29
39.1205
-154.725
-313.21
-374.707
-367.01
-340.459
-320.29
-312.604
-316.001
-327.214
-343.079
-360.99
-379.053
-396.057
-411.36
-424.71
-436.128
-445.741
-453.783
-460.508
-466.042
-470.821
-474.826
-478.324
-481.569
-484.564
5.38595
2.80967
4.55033
3.88832
4.34988
4.41049
4.57378
4.67863
4.68725
4.44227
3.81417
3.07925
3.4639
7.86153
21.3704
50.4166
99.5676
166.783
239.48
292.924
296.324
223.466
74.9883
-115.152
-281.381
-355.755
-356.215
-332.137
-311.208
-301.653
-303.183
-312.997
-328.069
-345.74
-363.984
-381.43
-397.312
-411.279
-423.297
-433.462
-441.999
-449.17
-455.087
-460.225
-464.548
-468.34
-471.871
-475.141
5.41291
2.83319
4.57447
3.91413
4.3741
4.43627
4.6014
4.71203
4.73039
4.50619
3.91172
3.19606
3.49782
7.50247
19.9969
47.1309
93.6021
158.338
230.71
288.395
301.886
243.465
108.517
-75.8513
-247.619
-334.072
-343.15
-322.245
-301.01
-289.744
-289.362
-297.63
-311.731
-329.005
-347.316
-365.141
-381.576
-396.168
-408.812
-419.569
-428.636
-436.279
-442.59
-448.074
-452.685
-456.73
-460.489
-463.992
5.43953
2.85696
4.59845
3.94011
4.39838
4.46222
4.62929
4.74582
4.77431
4.57178
4.01395
3.32634
3.56846
7.23008
18.7982
44.1292
87.976
150.078
221.576
282.501
304.914
260.245
139.33
-37.4391
-212.497
-309.941
-327.866
-310.759
-289.68
-276.894
-274.58
-281.163
-294.108
-310.81
-329.05
-347.162
-364.101
-379.295
-392.566
-403.924
-413.542
-421.69
-428.437
-434.325
-439.297
-443.67
-447.747
-451.554
5.46582
2.88102
4.62224
3.96623
4.42272
4.48834
4.65746
4.78
4.81904
4.63904
4.12047
3.46879
3.67204
7.03768
17.7648
41.4072
82.7103
142.083
212.248
275.491
305.642
273.868
167.185
-0.434839
-176.569
-283.687
-310.467
-297.682
-277.209
-263.115
-258.872
-263.636
-275.231
-291.166
-309.177
-327.468
-344.844
-360.61
-374.494
-386.453
-396.622
-405.268
-412.442
-418.708
-424.003
-428.657
-432.989
-437.051
5.49172
2.90535
4.64584
3.99252
4.44713
4.51466
4.68591
4.81457
4.86448
4.7077
4.23064
3.62171
3.80506
6.91794
16.8868
38.9578
77.8184
134.418
202.878
267.608
304.332
284.462
191.925
34.709
-140.387
-255.689
-291.112
-283.057
-263.614
-248.438
-242.286
-245.108
-255.154
-270.112
-287.714
-306.055
-323.791
-340.093
-354.583
-367.157
-377.907
-387.091
-394.742
-401.455
-407.145
-412.171
-416.86
-421.276
5.51724
2.93
4.66922
4.01899
4.47161
4.54117
4.71465
4.84953
4.91067
4.77776
4.3441
3.78391
3.96393
6.86424
16.1532
36.7709
73.3068
127.137
193.602
259.082
301.256
292.202
213.467
67.5962
-104.505
-226.376
-270.026
-266.979
-248.955
-232.931
-224.914
-225.685
-233.981
-247.735
-264.723
-282.96
-300.959
-317.752
-332.84
-346.049
-357.412
-367.176
-375.342
-382.534
-388.64
-394.057
-399.106
-403.889
5.54232
2.95497
4.69239
4.04565
4.49616
4.56788
4.74369
4.88489
4.95752
4.84896
4.46027
3.95384
4.14535
6.86927
15.5526
34.8338
69.174
120.277
184.533
250.126
296.692
297.313
231.818
97.926
-69.4292
-196.195
-247.475
-249.583
-233.315
-216.68
-206.86
-205.488
-211.839
-224.149
-240.294
-258.247
-276.388
-293.611
-309.281
-323.143
-335.157
-345.554
-354.293
-362.032
-368.629
-374.512
-380.003
-385.225
5.56698
2.98028
4.71531
4.0725
4.52077
4.59481
4.77304
4.92066
5.00509
4.92134
4.57888
4.13048
4.34609
6.92665
15.073
33.1311
65.4111
113.86
175.761
240.93
290.913
300.053
247.063
125.492
-35.604
-165.59
-223.753
-231.034
-216.801
-199.787
-188.247
-184.66
-188.878
-199.497
-214.55
-232.008
-250.143
-267.705
-283.918
-298.423
-311.1
-322.148
-331.48
-339.774
-346.87
-353.214
-359.141
-364.804
5.59115
3.00595
4.738
4.09956
4.54546
4.62196
4.8027
4.95684
5.0533
4.99469
4.69945
4.31253
4.56327
7.02955
14.7027
31.6463
62.0047
107.896
167.357
231.658
284.179
300.7
259.351
150.179
-3.40428
-134.986
-199.171
-211.522
-199.539
-182.368
-169.205
-163.355
-165.268
-173.944
-187.636
-204.358
-222.302
-240.078
-256.765
-271.884
-285.226
-296.944
-306.905
-315.794
-323.429
-330.273
-336.671
-342.798
5.61483
3.032
4.7604
4.12684
4.57022
4.64935
4.83269
4.99345
5.10221
5.06907
4.82178
4.49917
4.79413
7.17231
14.4301
30.3618
58.9364
102.383
159.367
222.446
276.725
299.535
268.878
171.95
26.871
-104.775
-174.045
-191.251
-181.669
-164.544
-149.872
-141.737
-141.191
-147.681
-159.727
-175.445
-192.979
-210.813
-227.875
-243.553
-257.542
-269.931
-280.543
-290.059
-298.278
-305.673
-312.602
-319.258
5.63797
3.05846
4.78255
4.15437
4.59506
4.67698
4.86302
5.03049
5.15176
5.1443
4.94549
4.68933
5.03628
7.349
14.2442
29.2602
56.186
97.3137
151.825
213.406
268.765
296.838
275.874
190.842
54.9987
-75.3085
-148.683
-170.433
-163.338
-146.444
-130.388
-119.97
-116.841
-120.911
-131.022
-145.442
-162.315
-180.018
-197.332
-213.501
-228.107
-241.162
-252.436
-262.597
-271.426
-279.404
-286.899
-294.126
5.66054
3.08534
4.80438
4.18214
4.61998
4.70486
4.8937
5.068
5.20202