/*--------------------------------*- C++ -*----------------------------------*\
  =========                 |
  \\      /  F ield         | OpenFOAM: The Open Source CFD Toolbox
   \\    /   O peration     | Website:  https://openfoam.org
    \\  /    A nd           | Version:  10
     \\/     M anipulation  |
\*---------------------------------------------------------------------------*/
FoamFile
{
    format      ascii;
    class       surfaceScalarField;
    location    "10";
    object      phi;
}
// * * * * * * * * * * * * * * * * * * * * * * * * * * * * * * * * * * * * * //

dimensions      [0 3 -1 0 0 0 0];

internalField   nonuniform List<scalar> 
75600
(
2.16017
-1217.85
1218.3
1.79342
-1008.25
1008.62
1.49006
-834.782
835.085
1.23915
-691.177
691.428
1.03157
-572.315
572.522
0.859812
-473.937
474.109
0.717651
-392.525
392.667
0.599954
-325.162
325.28
0.502486
-269.438
269.536
0.421732
-223.359
223.44
0.354784
-185.276
185.343
0.299242
-153.824
153.88
0.253102
-127.879
127.925
0.214737
-106.513
106.551
0.182749
-88.9593
88.9912
0.156045
-74.5893
74.616
0.13365
-62.886
62.9083
0.114758
-53.4284
53.4472
0.0986721
-45.878
45.8941
0.0848108
-39.9665
39.9803
0.0726912
-35.487
35.4991
0.0618561
-32.282
32.2925
0.0520559
-30.2426
30.2528
0.0428782
-29.3014
29.3107
0.034051
-29.3412
29.3499
0.0270256
-23.556
23.5631
0.0214381
-18.9063
18.9118
0.0169963
-15.168
15.1724
0.0134594
-12.1617
12.1653
0.0106434
-9.74617
9.74899
0.00840518
-7.80725
7.80948
0.00663452
-6.25252
6.2543
0.00524509
-5.00706
5.00845
0.00417033
-4.0101
4.01118
0.00335684
-3.21261
3.21343
0.00276251
-2.57511
2.5757
0.00235203
-2.06587
2.06628
0.00209588
-1.65951
1.65976
0.0019694
-1.33567
1.3358
0.00194975
-1.0782
1.07822
0.00201594
-0.874233
0.874167
0.0021542
-0.713611
0.713473
0.00233817
-0.588375
0.588191
0.00258774
-0.492351
0.492101
0.00283934
-0.42083
0.420578
0.00319182
-0.370478
0.370125
0.00353164
-0.338683
0.338342
-0.324715
0.324252
0.00399378
2.18767
-1217.41
1.81661
-1007.88
1.50949
-834.475
1.25534
-690.923
1.04499
-572.104
0.870857
-473.763
0.726689
-392.38
0.607305
-325.043
0.508417
-269.34
0.426479
-223.278
0.35855
-185.208
0.302199
-153.768
0.255401
-127.832
0.216507
-106.474
0.184103
-88.9269
0.157087
-74.5623
0.134471
-62.8634
0.115442
-53.4094
0.0992997
-45.8619
0.085459
-39.9526
0.0734379
-35.475
0.0627818
-32.2715
0.0532568
-30.2329
0.0444534
-29.2926
0.0361097
-29.3329
0.0294595
-23.5493
0.0241711
-18.901
0.0199752
-15.1638
0.0166438
-12.1584
0.0140037
-9.74353
0.0119201
-7.80516
0.0102911
-6.25089
0.00903754
-5.00581
0.00809968
-4.00916
0.00742953
-3.21194
0.00698928
-2.57467
0.00674588
-2.06563
0.00667021
-1.65943
0.00673637
-1.33574
0.00691843
-1.07838
0.0071907
-0.874505
0.00753815
-0.713959
0.00792262
-0.588759
0.00837747
-0.492806
0.00881819
-0.421271
0.00935781
-0.371018
0.00989584
-0.339221
-0.325316
0.0104977
2.21696
-1216.95
1.84096
-1007.5
1.5295
-834.164
1.27159
-690.665
1.058
-571.891
0.881108
-473.586
0.734595
-392.234
0.613223
-324.921
0.512671
-269.239
0.429342
-223.194
0.360258
-185.139
0.302957
-153.71
0.255386
-127.785
0.215874
-106.434
0.18299
-88.8941
0.155615
-74.5349
0.132751
-62.8406
0.113578
-53.3902
0.0973881
-45.8457
0.0835947
-39.9388
0.071718
-35.4631
0.0613049
-32.2613
0.0521395
-30.2235
0.0438218
-29.2842
0.0361051
-29.3252
0.0299405
-23.5432
0.0250375
-18.8961
0.021158
-15.1599
0.0180916
-12.1553
0.0156788
-9.74112
0.0137954
-7.80328
0.0123498
-6.24945
0.0112718
-5.00473
0.01051
-4.0084
0.0100224
-3.21146
0.00977595
-2.57442
0.00973905
-2.06559
0.00988163
-1.65957
0.0101744
-1.33603
0.0105861
-1.0788
0.0110844
-0.875003
0.0116493
-0.714524
0.0122341
-0.589344
0.0128712
-0.493443
0.0134785
-0.421878
0.0141421
-0.371682
0.0148044
-0.339883
-0.325978
0.0154655
2.24828
-1216.49
1.86689
-1007.12
1.55077
-833.847
1.28883
-690.403
1.0718
-571.674
0.891972
-473.407
0.742976
-392.085
0.619518
-324.798
0.517211
-269.137
0.432419
-223.109
0.362121
-185.068
0.30382
-153.652
0.255433
-127.736
0.215265
-106.394
0.181864
-88.8607
0.154097
-74.5072
0.130952
-62.8175
0.111599
-53.3709
0.095324
-45.8295
0.0815358
-39.9251
0.0697548
-35.4514
0.0595296
-32.2512
0.0506574
-30.2145
0.042744
-29.2762
0.0355518
-29.318
0.029788
-23.5374
0.0252033
-18.8915
0.0215883
-15.1563
0.0187484
-12.1525
0.0165349
-9.7389
0.0148324
-7.80158
0.0135571
-6.24817
0.012646
-5.00382
0.0120538
-4.00781
0.0117428
-3.21115
0.011682
-2.57436
0.0118387
-2.06575
0.012179
-1.65991
0.0126673
-1.33652
0.0132641
-1.07939
0.0139295
-0.875669
0.0146344
-0.715228
0.0153316
-0.590042
0.0160347
-0.494146
0.0166881
-0.422532
0.0173252
-0.372319
0.0179281
-0.340486
-0.326505
0.0184553
2.28174
-1216.02
1.89458
-1006.73
1.5735
-833.526
1.30735
-690.137
1.08674
-571.453
0.903889
-473.224
0.75235
-391.933
0.626755
-324.672
0.522664
-269.033
0.436385
-223.023
0.364853
-184.997
0.305534
-153.593
0.256311
-127.687
0.215465
-106.353
0.18152
-88.8268
0.153328
-74.479
0.129862
-62.794
0.110282
-53.3514
0.0938613
-45.8131
0.0800053
-39.9112
0.06823
-35.4396
0.0580836
-32.2412
0.0493695
-30.2056
0.0416961
-29.2685
0.0348293
-29.3112
0.0293106
-23.5318
0.0249233
-18.8871
0.0214789
-15.1528
0.0187927
-12.1498
0.0167222
-9.73683
0.015156
-7.80001
0.0140146
-6.24703
0.0132386
-5.00304
0.0127857
-4.00736
0.0126193
-3.21098
0.012707
-2.57445
0.0130118
-2.06605
0.0134929
-1.66039
0.0141058
-1.33713
0.0148018
-1.08009
0.0155335
-0.876401
0.016262
-0.715957
0.0169451
-0.590725
0.0175756
-0.494777
0.0181239
-0.42308
0.0185845
-0.37278
0.018955
-0.340857
-0.326729
0.0191792
2.31762
-1215.55
1.92439
-1006.34
1.59816
-833.2
1.32763
-689.866
1.10334
-571.229
0.917388
-473.038
0.763249
-391.779
0.635479
-324.544
0.529572
-268.927
0.441782
-222.935
0.368997
-184.924
0.308641
-153.532
0.258566
-127.637
0.217024
-106.312
0.182516
-88.7923
0.153877
-74.4503
0.130064
-62.7702
0.110224
-53.3316
0.0936213
-45.7965
0.0796515
-39.8972
0.0678265
-35.4278
0.0576909
-32.2312
0.049051
-30.1968
0.0415147
-29.2609
0.034848
-29.3046
0.0294761
-23.5264
0.0252105
-18.8829
0.0218792
-15.1495
0.0193036
-12.1472
0.0173438
-9.73487
0.0158894
-7.79855
0.0148625
-6.246
0.014205
-5.00238
0.0138746
-4.00703
0.0138332
-3.21094
0.0140439
-2.57466
0.0144625
-2.06647
0.0150389
-1.66097
0.0157185
-1.33781
0.0164428
-1.08081
0.0171583
-0.877116
0.0178194
-0.716619
0.0183909
-0.591297
0.0188535
-0.49524
0.019195
-0.423422
0.0193938
-0.372979
0.0194486
-0.340912
-0.326583
0.0193026
2.35596
-1215.07
1.95628
-1005.94
1.62458
-832.868
1.34944
-689.591
1.12126
-571.001
0.932057
-472.849
0.775191
-391.622
0.645145
-324.414
0.537341
-268.819
0.447973
-222.846
0.373879
-184.85
0.312441
-153.471
0.261474
-127.586
0.219202
-106.269
0.184101
-88.7573
0.154986
-74.4212
0.130801
-62.7461
0.110675
-53.3115
0.0938622
-45.7797
0.0797496
-39.8831
0.067841
-35.4159
0.0576781
-32.2211
0.0490663
-30.1881
0.0416113
-29.2534
0.0350764
-29.298
0.0297958
-23.5211
0.0256091
-18.8787
0.0223594
-15.1462
0.0198726
-12.1447
0.0180089
-9.73301
0.0166572
-7.7972
0.0157385
-6.24508
0.0151942
-5.00184
0.0149796
-4.00681
0.0150524
-3.21101
0.0153686
-2.57497
0.0158742
-2.06698
0.0165079
-1.6616
0.017204
-1.3385
0.0178957
-1.0815
0.0185254
-0.877746
0.0190466
-0.71714
0.019433
-0.591683
0.0196631
-0.49547
0.0197383
-0.423497
0.0196355
-0.372876
0.0193517
-0.340628
-0.326064
0.0188323
2.39686
-1214.58
1.99033
-1005.54
1.65283
-832.531
1.37282
-689.311
1.14054
-570.768
0.947908
-472.656
0.788177
-391.463
0.655742
-324.282
0.545949
-268.709
0.454929
-222.755
0.379464
-184.774
0.316893
-153.408
0.264991
-127.534
0.221952
-106.226
0.186227
-88.7216
0.156608
-74.3916
0.132023
-62.7215
0.111587
-53.291
0.0945401
-45.7626
0.0802583
-39.8689
0.0682373
-35.4039
0.0580146
-32.2109
0.0493918
-30.1794
0.0419706
-29.246
0.0355092
-29.2916
0.0302714
-23.5159
0.0261262
-18.8746
0.0229311
-15.143
0.0205151
-12.1423
0.0187364
-9.73123
0.0174807
-7.79594
0.0166663
-6.24427
0.016231
-5.0014
0.0161257
-4.00671
0.016301
-3.21118
0.0167028
-2.57537
0.0172654
-2.06754
0.0179147
-1.66225
0.0185753
-1.33916
0.019174
-1.0821
0.0196539
-0.878226
0.0199741
-0.717461
0.0201201
-0.591829
0.0200771
-0.495427
0.0198595
-0.423279
0.0194502
-0.372467
0.0188477
-0.340026
-0.325218
0.0180014
2.44044
-1214.08
2.02664
-1005.12
1.683
-832.187
1.39783
-689.026
1.16125
-570.532
0.965009
-472.46
0.802275
-391.3
0.667337
-324.147
0.555465
-268.597
0.462718
-222.662
0.385823
-184.698
0.322068
-153.345
0.269189
-127.481
0.225346
-106.182
0.188963
-88.6852
0.158813
-74.3614
0.133801
-62.6965
0.113028
-53.2703
0.0957187
-45.7453
0.0812385
-39.8544
0.0690716
-35.3917
0.0587498
-32.2007
0.0500695
-30.1706
0.0426252
-29.2385
0.0361661
-29.2851
0.0309123
-23.5106
0.0267628
-18.8704
0.0235892
-15.1398
0.0212212
-12.1399
0.0195131
-9.72952
0.0183441
-7.79477
0.0176271
-6.24355
0.0172936
-5.00107
0.0172869
-4.0067
0.0175477
-3.21144
0.018009
-2.57583
0.0185916
-2.06812
0.0192094
-1.66287
0.0197787
-1.33973
0.0202255
-1.08255
0.0204993
-0.8785
0.0205718
-0.717533
0.0204428
-0.5917
0.0201115
-0.495095
0.0196043
-0.422772
0.0189123
-0.371775
0.0180376
-0.339151
-0.324114
0.0169327
2.48682
-1213.57
2.0653
-1004.7
1.71518
-831.837
1.42459
-688.735
1.18347
-570.291
0.983457
-472.26
0.81758
-391.134
0.680033
-324.009
0.565992
-268.483
0.471448
-222.568
0.393063
-184.619
0.328077
-153.28
0.27418
-127.427
0.229498
-106.138
0.192426
-88.6482
0.161713
-74.3307
0.136246
-62.6711
0.115108
-53.2492
0.0975067
-45.7277
0.0827942
-39.8397
0.0704428
-35.3794
0.0599764
-32.1903
0.0511829
-30.1617
0.0436468
-29.2309
0.0371047
-29.2786
0.0317645
-23.5053
0.0275559
-18.8662
0.0243635
-15.1366
0.0220157
-12.1376
0.020359
-9.72786
0.0192635
-7.79368
0.0186329
-6.24292
0.0183894
-5.00082
0.018465
-4.00677
0.0187878
-3.21177
0.0192754
-2.57632
0.0198347
-2.06868
0.0203694
-1.6634
0.0207919
-1.34016
0.0210337
-1.08279
0.0210575
-0.878525
0.0208533
-0.717329
0.0204384
-0.591286
0.0198271
-0.494484
0.0190584
-0.422004
0.0181277
-0.370844
0.0170435
-0.338068
-0.322827
0.0157567
2.53611
-1213.06
2.10643
-1004.27
1.74947
-831.48
1.45317
-688.439
1.2073
-570.045
1.00334
-472.056
0.834187
-390.965
0.693921
-323.869
0.57763
-268.367
0.481219
-222.471
0.401291
-184.539
0.335026
-153.213
0.280072
-127.373
0.234517
-106.092
0.196724
-88.6104
0.165419
-74.2994
0.139467
-62.6452
0.117933
-53.2277
0.100007
-45.7098
0.0850245
-39.8247
0.0724437
-35.3668
0.0617795
-32.1796
0.0528076
-30.1527
0.0450983
-29.2232
0.0383724
-29.2719
0.0328625
-23.4998
0.0285299
-18.8619
0.0252705
-15.1334
0.0229087
-12.1352
0.0212797
-9.72623
0.0202402
-7.79264
0.0196809
-6.24236
0.0195108
-5.00065
0.0196472
-4.00691
0.0200024
-3.21212
0.0204775
-2.5768
0.0209665
-2.06917
0.0213661
-1.6638
0.0215913
-1.34038
0.021586
-1.08279
0.0213333
-0.878272
0.0208437
-0.716839
0.0201536
-0.590595
0.0192919
-0.493622
0.0183045
-0.421016
0.0171913
-0.369731
0.015961
-0.336837
-0.321428
0.0145616
2.58845
-1212.53
2.15014
-1003.83
1.78597
-831.116
1.48368
-688.137
1.23284
-569.794
1.02476
-471.848
0.852197
-390.792
0.70911
-323.726
0.590486
-268.248
0.492146
-222.373
0.41062
-184.458
0.343034
-153.146
0.286986
-127.316
0.240524
-106.046
0.201979
-88.5719
0.170052
-74.2675
0.143585
-62.6187
0.121622
-53.2057
0.103334
-45.6915
0.0880395
-39.8094
0.0751783
-35.354
0.0642546
-32.1687
0.0550279
-30.1434
0.0470509
-29.2152
0.0400223
-29.2649
0.0342452
-23.494
0.0297124
-18.8573
0.0263291
-15.13
0.0239123
-12.1328
0.0222819
-9.7246
0.0212759
-7.79163
0.020768
-6.24185
0.0206493
-5.00053
0.0208193
-4.00708
0.0211717
-3.21247
0.0215911
-2.57721
0.0219611
-2.06954
0.0221768
-1.66402
0.0221629
-1.34037
0.0218833
-1.08251
0.0213449
-0.877734
0.0205804
-0.716075
0.0196424
-0.589657
0.018572
-0.492552
0.0174155
-0.41986
0.0161755
-0.368491
0.0148536
-0.335515
-0.319975
0.0134004
2.64396
-1211.99
2.19654
-1003.38
1.8248
-830.744
1.51623
-687.828
1.26019
-569.538
1.04782
-471.635
0.87172
-390.616
0.725715
-323.58
0.60468
-268.127
0.504351
-222.272
0.421181
-184.374
0.352233
-153.077
0.295056
-127.259
0.247655
-105.998
0.208329
-88.5326
0.175748
-74.2349
0.148734
-62.5917
0.126308
-53.1833
0.107618
-45.6728
0.0919628
-39.7938
0.0787628
-35.3408
0.0675083
-32.1575
0.0579384
-30.1338
0.0495829
-29.2068
0.0421136
-29.2574
0.0359558
-23.4878
0.0311337
-18.8525
0.0275599
-15.1264
0.0250395
-12.1303
0.0233719
-9.72293
0.0223716
-7.79063
0.0218896
-6.24137
0.0217951
-5.00044
0.0219657
-4.00725
0.0222754
-3.21278
0.0225934
-2.57753
0.0227971
-2.06974
0.0227869
-1.66401
0.0225042
-1.34009
0.0219387
-1.08194
0.021122
-0.876917
0.0201077
-0.715061
0.0189599
-0.58851
0.0177258
-0.491318
0.0164497
-0.418584
0.0151288
-0.367171
0.0137628
-0.33415
-0.318514
0.0123018
2.70278
-1211.44
2.24576
-1002.93
1.86606
-830.365
1.55091
-687.513
1.28946
-569.276
1.07264
-471.418
0.892883
-390.436
0.743865
-323.431
0.620351
-268.004
0.517977
-222.17
0.43312
-184.29
0.362775
-153.006
0.304436
-127.201
0.256069
-105.95
0.21593
-88.4925
0.182666
-74.2017
0.155071
-62.5642
0.132144
-53.1604
0.113008
-45.6537
0.0969382
-39.7777
0.0833331
-35.3272
0.0716655
-32.1458
0.0616505
-30.1238
0.052789
-29.198
0.0447186
-29.2493
0.0380489
-23.4811
0.0328345
-18.8473
0.0289922
-15.1226
0.0263111
-12.1276
0.0245637
-9.72118
0.0235349
-7.7896
0.0230475
-6.24088
0.022944
-5.00033
0.0230772
-4.00738
0.0233008
-3.213
0.0234714
-2.5777
0.023466
-2.06973
0.0231969
-1.66374
0.0226295
-1.33952
0.0217818
-1.08109
0.0207088
-0.875844
0.0194795
-0.713832
0.0181661
-0.587197
0.0168127
-0.489965
0.0154606
-0.417233
0.0140981
-0.365809
0.0127254
-0.332779
-0.317078
0.0112881
2.76505
-1210.88
2.29794
-1002.46
1.90988
-829.977
1.58787
-687.191
1.3208
-569.009
1.09937
-471.197
0.915827
-390.253
0.763714
-323.279
0.637658
-267.878
0.533192
-222.066
0.446609
-184.203
0.374836
-152.935
0.315309
-127.141
0.265947
-105.9
0.22497
-88.4515
0.190992
-74.1677
0.162781
-62.536
0.139312
-53.137
0.119681
-45.6341
0.103136
-39.7612
0.0890507
-35.3131
0.0768769
-32.1337
0.0662995
-30.1131
0.0567845
-29.1884
0.0479291
-29.2405
0.0405969
-23.4738
0.0348716
-18.8416
0.030671
-15.1184
0.0277622
-12.1247
0.0258847
-9.71931
0.0247864
-7.7885
0.0242561
-6.24035
0.0241047
-5.00018
0.0241581
-4.00743
0.0242503
-3.21309
0.0242296
-2.57768
0.0239788
-2.06948
0.0234295
-1.66319
0.0225755
-1.33866
0.0214625
-1.07998
0.0201657
-0.874547
0.0187633
-0.71243
0.0173277
-0.585762
0.0158992
-0.488537
0.0145074
-0.415842
0.0131371
-0.364439
0.0117845
-0.331426
-0.315683
0.0103894
2.83093
-1210.3
2.35318
-1001.98
1.95637
-829.58
1.62721
-686.862
1.35428
-568.736
1.12809
-470.971
0.940665
-390.065
0.785375
-323.124
0.65672
-267.749
0.550121
-221.959
0.461781
-184.115
0.388553
-152.861
0.327814
-127.081
0.277433
-105.85
0.235589
-88.4097
0.200865
-74.133
0.172003
-62.5071
0.147947
-53.1129
0.127767
-45.6139
0.11068
-39.7441
0.0960286
-35.2985
0.0832414
-32.1209
0.0719673
-30.1019
0.0616306
-29.1781
0.0517786
-29.2306
0.0436112
-23.4656
0.037239
-18.8352
0.0325761
-15.1137
0.0293618
-12.1215
0.0272947
-9.71724
0.0260783
-7.78728
0.0254606
-6.23973
0.0252169
-4.99993
0.0251443
-4.00736
0.0250593
-3.21301
0.0248074
-2.57743
0.0242836
-2.06896
0.0234445
-1.66235
0.0223144
-1.33753
0.0209634
-1.07863
0.0194804
-0.873064
0.0179479
-0.710897
0.0164312
-0.584245
0.0149647
-0.487071
0.0135643
-0.414441
0.0122129
-0.363088
0.0108961
-0.330109
-0.314342
0.00955566
2.90058
-1209.71
2.41164
-1001.49
2.00568
-829.174
1.66906
-686.525
1.39008
-568.457
1.15898
-470.74
0.967559
-389.874
0.809026
-322.965
0.677725
-267.618
0.568961
-221.85
0.478839
-184.025
0.404137
-152.787
0.342166
-127.019
0.290743
-105.799
0.248008
-88.367
0.212509
-74.0975
0.182956
-62.4776
0.158267
-53.0883
0.137478
-45.5931
0.119773
-39.7264
0.104459
-35.2832
0.090937
-32.1074
0.0788138
-30.0897
0.067463
-29.1667
0.0563744
-29.2195
0.0471756
-23.4564
0.0400017
-18.828
0.0347581
-15.1085
0.0311487
-12.1179
0.028823
-9.71491
0.0274318
-7.78589
0.0266758
-6.23897
0.0262902
-4.99955
0.0260433
-4.00711
0.0257371
-3.2127
0.02522
-2.57691
0.0244056
-2.06815
0.0232791
-1.66122
0.021894
-1.33615
0.0203391
-1.07708
0.0187098
-0.871435
0.0170869
-0.709275
0.0155241
-0.582683
0.0140478
-0.485595
0.0126611
-0.413055
0.0113438
-0.361771
0.0100733
-0.328839
-0.313062
0.00879319
2.97415
-1209.11
2.47348
-1000.99
2.05794
-828.758
1.71357
-686.181
1.42833
-568.172
1.19217
-470.504
0.996677
-389.678
0.834841
-322.803
0.700857
-267.484
0.589904
-221.739
0.497986
-183.933
0.421795
-152.71
0.358578
-126.956
0.306098
-105.746
0.262447
-88.3234
0.226141
-74.0612
0.195858
-62.4473
0.170485
-53.0629
0.149022
-45.5717
0.130614
-39.708
0.114529
-35.2671
0.100135
-32.093
0.0869898
-30.0766
0.074408
-29.1541
0.0618102
-29.2069
0.0513584
-23.446
0.0432075
-18.8199
0.0372482
-15.1025
0.0331413
-12.1138
0.0304776
-9.71225
0.0288465
-7.78426
0.0278942
-6.23802
0.027313
-4.99896
0.0268425
-4.00664
0.0262744
-3.21213
0.0254658
-2.5761
0.0243535
-2.06703
0.0229527
-1.65982
0.021341
-1.33454
0.0196199
-1.07536
0.0178831
-0.869698
0.016205
-0.707597
0.0146261
-0.581104
0.0131617
-0.484131
0.0118063
-0.4117
0.0105332
-0.360499
0.00931509
-0.327621
-0.311844
0.00809684
3.05182
-1208.49
2.53883
-1000.48
2.1133
-828.333
1.76088
-685.828
1.46919
-567.881
1.22785
-470.262
1.02819
-389.479
0.863007
-322.638
0.726315
-267.347
0.613161
-221.626
0.519439
-183.839
0.441754
-152.633
0.377284
-126.891
0.323731
-105.692
0.279144
-88.2788
0.242
-74.024
0.210946
-62.4163
0.184833
-53.0368
0.162623
-45.5495
0.143419
-39.6888
0.126441
-35.2501
0.111021
-32.0776
0.0966591
-30.0622
0.0826008
-29.1401
0.0681872
-29.1925
0.0562329
-23.434
0.0469075
-18.8105
0.0400801
-15.0957
0.0353593
-12.109
0.0322669
-9.70915
0.0303217
-7.78231
0.0291091
-6.2368
0.028275
-4.99813
0.0275319
-4.0059
0.0266658
-3.21127
0.0255478
-2.57498
0.0241403
-2.06563
0.0224867
-1.65817
0.0206818
-1.33273
0.018832
-1.07351
0.0170238
-0.86789
0.0153198
-0.705893
0.0137499
-0.579534
0.012314
-0.482695
0.0110047
-0.410391
0.00978426
-0.359279
0.00862502
-0.326462
-0.310694
0.00747352
3.13378
-1207.86
2.60788
-999.954
2.17192
-827.897
1.81116
-685.468
1.51282
-567.582
1.26618
-470.016
1.06229
-389.275
0.893724
-322.47
0.754312
-267.208
0.638955
-221.511
0.543432
-183.743
0.464257
-152.554
0.39853
-126.825
0.343897
-105.638
0.298355
-88.2333
0.260343
-73.986
0.228472
-62.3845
0.201561
-53.0099
0.178524
-45.5264
0.158418
-39.6687
0.140413
-35.2322
0.123794
-32.0609
0.107996
-30.0464
0.0921867
-29.1243
0.0756137
-29.1759
0.0618777
-23.4203
0.0511565
-18.7998
0.0432897
-15.0878
0.0378234
-12.1036
0.0341999
-9.70553
0.0318574
-7.77996
0.0303139
-6.23526
0.0291672
-4.99698
0.0281043
-4.00483
0.02691
-3.21007
0.025473
-2.57355
0.0237817
-2.06394
0.0219032
-1.65629
0.0199411
-1.33077
0.0179978
-1.07156
0.0161508
-0.866043
0.0144439
-0.704186
0.0129019
-0.577992
0.0115053
-0.481299
0.0102521
-0.409137
0.00908885
-0.358115
0.00799548
-0.32537
-0.309618
0.00691868
3.22021
-1207.21
2.68078
-999.415
2.23397
-827.45
1.86457
-685.098
1.55939
-567.277
1.30734
-469.764
1.09918
-389.067
0.927204
-322.298
0.785074
-267.065
0.667525
-221.393
0.570216
-183.646
0.489562
-152.473
0.422584
-126.758
0.366865
-105.582
0.320351
-88.1868
0.28144
-73.9471
0.248708
-62.3518
0.220932
-52.9822
0.196983
-45.5025
0.17586
-39.6476
0.156676
-35.213
0.138666
-32.0429
0.121188
-30.0289
0.10332
-29.1064
0.0842047
-29.1568
0.0683762
-23.4044
0.0560128
-18.7874
0.0469151
-15.0787
0.0405557
-12.0972
0.0362861
-9.70126
0.033454
-7.77713
0.0315038
-6.23331
0.0299831
-4.99546
0.028556
-4.00341
0.0270097
-3.20853
0.0252523
-2.57179
0.0232957
-2.06198
0.0212235
-1.65422
0.0191401
-1.32869
0.0171365
-1.06956
0.0152779
-0.864185
0.0135885
-0.702497
0.0120859
-0.57649
0.0107364
-0.479949
0.00954126
-0.407942
0.00843342
-0.357007
0.007407
-0.324342
-0.308612
0.00640245
3.31132
-1206.54
2.75773
-998.861
2.29961
-826.992
1.92129
-684.72
1.60909
-566.965
1.35154
-469.506
1.13905
-388.854
0.963675
-322.122
0.81884
-266.921
0.699124
-221.274
0.600054
-183.547
0.517942
-152.391
0.449727
-126.69
0.392923
-105.525
0.345423
-88.1393
0.305583
-73.9073
0.271939
-62.3181
0.24323
-52.9535
0.218272
-45.4776
0.196005
-39.6253
0.175475
-35.1925
0.155858
-32.0233
0.13643
-30.0095
0.116164
-29.0861
0.0940811
-29.1347
0.0758164
-23.3862
0.0615377
-18.7732
0.0509964
-15.0681
0.0435798
-12.0898
0.0385361
-9.69621
0.0351131
-7.77371
0.0326751
-6.23087
0.0307187
-4.9935
0.0288868
-4.00157
0.0269714
-3.20661
0.024899
-2.56972
0.0227006
-2.05978
0.0204665
-1.65199
0.0182958
-1.32652
0.0162607
-1.06752
0.014413
-0.862337
0.0127576
-0.700842
0.0113036
-0.575035
0.0100089
-0.478655
0.00887182
-0.406804
0.00782411
-0.355959
0.00686313
-0.323384
-0.30768
0.00592887
3.40731
-1205.86
2.8389
-998.293
2.36903
-826.522
1.98149
-684.332
1.66211
-566.645
1.39898
-469.243
1.18214
-388.637
1.00337
-321.943
0.855862
-266.773
0.734017
-221.152
0.633224
-183.446
0.549685
-152.307
0.480252
-126.621
0.422369
-105.467
0.373873
-88.0909
0.333072
-73.8665
0.298466
-62.2835
0.268747
-52.9238
0.242676
-45.4515
0.219125
-39.6018
0.197066
-35.1704
0.175606
-32.0018
0.153927
-29.9878
0.130887
-29.063
0.105369
-29.1092
0.0842903
-23.3651
0.0677956
-18.7567
0.0555759
-15.0559
0.0469204
-12.0811
0.0409618
-9.69025
0.0368376
-7.76958
0.0338268
-6.22786
0.0313733
-4.99104
0.0291002
-3.9993
0.0268048
-3.20432
0.0244279
-2.56734
0.0220133
-2.05737
0.0196483
-1.64962
0.0174196
-1.32429
0.0153788
-1.06548
0.013559
-0.860518
0.0119538
-0.699237
0.0105534
-0.573635
0.00932313
-0.477425
0.00824355
-0.405724
0.0072596
-0.354975
0.00636799
-0.322489
-0.30681
0.00550196
3.50842
-1205.15
2.92451
-997.709
2.44242
-826.04
2.04537
-683.935
1.71865
-566.319
1.44986
-468.974
1.22868
-388.416
1.04653
-321.761
0.896399
-266.623
0.772478
-221.028
0.670013
-183.344
0.585089
-152.222
0.514467
-126.55
0.455516
-105.408
0.406014
-88.0414
0.364224
-73.8247
0.328599
-62.2479
0.29779
-52.893
0.270492
-45.4242
0.245504
-39.5768
0.221712
-35.1466
0.19815
-31.9783
0.173892
-29.9635
0.147664
-29.0368
0.1182
-29.0797
0.0938927
-23.3408
0.0748531
-18.7376
0.0606976
-15.0418
0.0506037
-12.071
0.0435759
-9.68322
0.038632
-7.76464
0.0349598
-6.22418
0.0319492
-4.98803
0.0292032
-3.99655
0.0265216
-3.20164
0.0238544
-2.56468
0.0212487
-2.05476
0.0187808
-1.64715
0.0165174
-1.32203
0.0144926
-1.06346
0.0127149
-0.858741
0.0111735
-0.697696
0.00983808
-0.5723
0.00868393
-0.476271
0.00767001
-0.404711
0.00676366
-0.354069
0.00593542
-0.32166
-0.306007
0.00513226
3.61487
-1204.43
3.01475
-997.109
2.51997
-825.545
2.11313
-683.528
1.77892
-565.984
1.50442
-468.7
1.27889
-388.191
1.09342
-321.576
0.940721
-266.47
0.814792
-220.902
0.710717
-183.24
0.62446
-152.136
0.552685
-126.478
0.492684
-105.348
0.442171
-87.9909
0.399358
-73.7819
0.362657
-62.2112
0.330669
-52.861
0.302021
-45.3956
0.275428
-39.5502
0.249684
-35.1209
0.223736
-31.9523
0.196538
-29.9363
0.166674
-29.0069
0.132705
-29.0458
0.104721
-23.3128
0.0827788
-18.7157
0.0664067
-15.0254
0.0546571
-12.0593
0.046393
-9.67496
0.040503
-7.75874
0.0360781
-6.21976
0.032452
-4.98441
0.0292054
-3.99331
0.026136
-3.19857
0.0231942
-2.56173
0.02042
-2.05199
0.0178719
-1.64461
0.0155922
-1.31975
0.0135972
-1.06146
0.0118736
-0.857017
0.0104043
-0.696226
0.00914561
-0.571042
0.00807359
-0.475199
0.00713617
-0.403774
0.00631091
-0.353243
0.00554636
-0.320896
-0.305265
0.00480442
3.7269
-1203.68
3.10985
-996.492
2.6019
-825.037
2.18498
-683.112
1.84313
-565.643
1.56288
-468.419
1.33302
-387.961
1.14429
-321.387
0.9891
-266.315
0.861244
-220.774
0.755635
-183.134
0.668109
-152.048
0.595226
-126.405
0.534196
-105.287
0.482668
-87.9394
0.438802
-73.7381
0.400962
-62.1734
0.367698
-52.8277
0.337566
-45.3654
0.309187
-39.5219
0.281252
-35.093
0.25261
-31.9236
0.222083
-29.9058
0.188095
-28.9729
0.149018
-29.0067
0.116873
-23.2806
0.0916416
-18.6904
0.0727495
-15.0065
0.0591089
-12.0456
0.0494287
-9.66528
0.042459
-7.75177
0.0371883
-6.21449
0.0328904
-4.98011
0.0291196
-3.98954
0.0256634
-3.19511
0.0224629
-2.55853
0.0195393
-2.04906
0.0169281
-1.64199
0.0146432
-1.31746
0.0126839
-1.0595
0.0110197
-0.855354
0.00962305
-0.69483
0.00844661
-0.569866
0.0074577
-0.474209
0.00660401
-0.40292
0.00586456
-0.352503
0.00516907
-0.3202
-0.304593
0.00449703
3.84479
-1202.91
3.21006
-995.857
2.68844
-824.515
2.26116
-682.684
1.91154
-565.293
1.62552
-468.133
1.39137
-387.727
1.19945
-321.195
1.04187
-266.157
0.912188
-220.644
0.805136
-183.027
0.716413
-151.96
0.642476
-126.331
0.580445
-105.225
0.527901
-87.8869
0.482949
-73.6931
0.443905
-62.1344
0.409265
-52.7931
0.377504
-45.3337
0.347144
-39.4915
0.316761
-35.0626
0.285092
-31.892
0.250816
-29.8715
0.212181
-28.9343
0.167351
-28.9618
0.130524
-23.2438
0.101592
-18.6615
0.0798543
-14.9848
0.0640709
-12.0299
0.0527835
-9.65399
0.0445945
-7.74358
0.0383839
-6.20827
0.0333603
-4.97508
0.0290452
-3.98522
0.0252053
-3.19127
0.0217613
-2.55509
0.0187051
-2.04601
0.0160416
-1.63933
0.0137579
-1.31518
0.011831
-1.05758
0.0102204
-0.853744
0.0088833
-0.693492
0.00777547
-0.568759
0.00685057
-0.473283
0.00606525
-0.402135
0.00538771
-0.351823
0.00475227
-0.319564
-0.303981
0.0041398
3.9688
-1202.12
3.3156
-995.204
2.7798
-823.98
2.34185
-682.246
1.98434
-564.935
1.69252
-467.842
1.45413
-387.488
1.25912
-321
1.09925
-265.998
0.967844
-220.513
0.859446
-182.919
0.76961
-151.87
0.694676
-126.257
0.631676
-105.162
0.578117
-87.8333
0.532045
-73.647
0.491725
-62.0941
0.455596
-52.757
0.422051
-45.3001
0.389501
-39.459
0.356393
-35.0295
0.321341
-31.8569
0.282866
-29.8331
0.239024
-28.8904
0.187753
-28.9106
0.145694
-23.2017
0.11262
-18.6284
0.0876902
-14.9598
0.0694953
-12.0117
0.0563981
-9.64089
0.0468445
-7.73403
0.0395985
-6.20103
0.0337971
-4.96928
0.028919
-3.98034
0.0246992
-3.18705
0.0210255
-2.55142
0.0178523
-2.04283
0.015147
-1.63663
0.0128718
-1.3129
0.0109769
-1.05568
0.00941594
-0.852182
0.00812838
-0.692205
0.00707608
-0.567704
0.00619878
-0.472405
0.00546693
-0.401404
0.00483366
-0.351189
0.00425635
-0.318998
-0.303441
0.00370474
4.09919
-1201.3
3.42669
-994.531
2.87616
-823.429
2.42725
-681.797
2.0617
-564.57
1.76406
-467.544
1.52149
-387.246
1.32347
-320.802
1.16144
-265.836
1.02843
-220.38
0.918791
-182.809
0.827928
-151.779
0.752061
-126.181
0.688126
-105.098
0.633552
-87.7788
0.586322
-73.5998
0.544649
-62.0524
0.506911
-52.7193
0.471414
-45.2647
0.43645
-39.424
0.400325
-34.9934
0.361511
-31.8181
0.318359
-29.7899
0.268717
-28.8408
0.210276
-28.8521
0.162404
-23.1539
0.124723
-18.5907
0.0962341
-14.9313
0.0753437
-11.9908
0.0602236
-9.62577
0.0491549
-7.72296
0.0407772
-6.19265
0.0341467
-4.96265
0.0286877
-3.97488
0.0240908
-3.18245
0.0201987
-2.54753
0.0169209
-2.03956
0.0141857
-1.63389
0.011926
-1.31064
0.0100716
-1.05383
0.00855932
-0.85067
0.007326
-0.690971
0.00632018
-0.566699
0.00549065
-0.471575
0.00480711
-0.400717
0.00421194
-0.350594
0.00371263
-0.318486
-0.302955
0.00323935
4.23628
-1200.46
3.5436
-993.839
2.9778
-822.863
2.51761
-681.337
2.14389
-564.196
1.84041
-467.24
1.59373
-386.999
1.39282
-320.601
1.22874
-265.671
1.09425
-220.245
0.983489
-182.698
0.891695
-151.687
0.814964
-126.104
0.750131
-105.033
0.694543
-87.7232
0.646116
-73.5514
0.603007
-62.0093
0.563532
-52.6798
0.525905
-45.227
0.488289
-39.3864
0.448836
-34.954
0.405862
-31.7751
0.357531
-29.7416
0.301466
-28.7847
0.235094
-28.7857
0.1808
-23.0996
0.138028
-18.5479
0.105596
-14.8989
0.0817135
-11.9669
0.0643496
-9.6084
0.0516116
-7.71022
0.0420055
-6.18304
0.0344954
-4.95514
0.0284378
-3.96883
0.0234647
-3.17748
0.0193621
-2.54342
0.0159886
-2.03618
0.0132308
-1.63113
0.0109926
-1.30841
0.00918273
-1.05202
0.00772813
-0.849216
0.00655472
-0.689798
0.00561414
-0.565758
0.0048462
-0.470808
0.00422518
-0.4001
0.00369385
-0.350062
0.00325031
-0.318056
-0.302557
0.00283841
4.38038
-1199.59
3.66663
-993.125
3.08496
-822.282
2.61316
-680.865
2.23112
-563.814
1.9218
-466.931
1.67107
-386.748
1.46737
-320.398
1.30138
-265.505
1.16554
-220.109
1.05378
-182.586
0.961153
-151.595
0.88363
-126.026
0.817937
-104.968
0.761334
-87.6666
0.711667
-73.5017
0.667033
-61.9647
0.625685
-52.6385
0.585738
-45.1871
0.545221
-39.3459
0.502114
-34.9109
0.454564
-31.7275
0.400529
-29.6876
0.337394
-28.7216
0.262301
-28.7106
0.200957
-23.0382
0.152592
-18.4996
0.11582
-14.8621
0.0886367
-11.9397
0.0688009
-9.58856
0.0542362
-7.69565
0.0433043
-6.17211
0.0348635
-4.9467
0.0281878
-3.96215
0.0228368
-3.17213
0.0185293
-2.53912
0.0150681
-2.03272
0.0122955
-1.62836
0.0100869
-1.3062
0.00832922
-1.05026
0.00693664
-0.847825
0.00582911
-0.688691
0.00494931
-0.564882
0.00424194
-0.4701
0.00368478
-0.399543
0.00320252
-0.34958
0.00284537
-0.317687
-0.302215
0.00251647
4.53182
-1198.69
3.79603
-992.389
3.19789
-821.684
2.71412
-680.382
2.32361
-563.424
2.00842
-466.616
1.7537
-386.494
1.54733
-320.191
1.37956
-265.338
1.24251
-219.972
1.12986
-182.474
1.03651
-151.501
0.958263
-125.948
0.891747
-104.901
0.834127
-87.609
0.783174
-73.4508
0.736918
-61.9185
0.69355
-52.5951
0.651083
-45.1446
0.607403
-39.3023
0.560307
-34.8638
0.50775
-31.6749
0.44747
-29.6273
0.376597
-28.6507
0.291973
-28.626
0.222937
-22.9692
0.168465
-18.4451
0.126944
-14.8206
0.0961443
-11.9089
0.0736033
-9.56602
0.0570522
-7.6791
0.044696
-6.15975
0.0352718
-4.93727
0.0279556
-3.95484
0.0222208
-3.1664
0.0177105
-2.53461
0.0141671
-2.02918
0.0113886
-1.62558
0.00922017
-1.30403
0.00752722
-1.04857
0.00621296
-0.846512
0.00518863
-0.687669
0.00439655
-0.564091
0.00377744
-0.469484
0.00330413
-0.399071
0.00291525
-0.349194
0.00262213
-0.317395
-0.301953
0.00235903
4.69094
-1197.76
3.93212
-991.63
3.31683
-821.068
2.82073
-679.886
2.42157
-563.024
2.10047
-466.295
1.84181
-386.235
1.63288
-319.982
1.46345
-265.168
1.32532
-219.834
1.21191
-182.36
1.11791
-151.407
1.03902
-125.869
0.971714
-104.834
0.913072
-87.5504
0.860778
-73.3985
0.812799
-61.8705
0.767254
-52.5496
0.722057
-45.0994
0.674943
-39.2552
0.623511
-34.8124
0.565506
-31.6169
0.498429
-29.5602
0.41914
-28.5714
0.324164
-28.531
0.246786
-22.8918
0.185687
-18.384
0.139002
-14.7739
0.104266
-11.8742
0.0787836
-9.54054
0.0600847
-7.6604
0.0462041
-6.14587
0.0357414
-4.92681
0.0277579
-3.94685
0.0216275