/*--------------------------------*- C++ -*----------------------------------*\
  =========                 |
  \\      /  F ield         | OpenFOAM: The Open Source CFD Toolbox
   \\    /   O peration     | Website:  https://openfoam.org
    \\  /    A nd           | Version:  10
     \\/     M anipulation  |
\*---------------------------------------------------------------------------*/
FoamFile
{
    format      ascii;
    class       volVectorField;
    location    "10";
    object      U;
}
// * * * * * * * * * * * * * * * * * * * * * * * * * * * * * * * * * * * * * //

dimensions      [0 1 -1 0 0 0 0];

internalField   nonuniform List<vector> 
38016
(
(51.3075 9.01712 1.99093e-25)
(51.3064 9.01974 7.05786e-26)
(51.3076 9.01895 -8.52444e-26)
(51.3079 9.01927 0)
(51.3085 9.01901 0)
(51.3092 9.01878 0)
(51.3101 9.01836 -1.33694e-25)
(51.3114 9.01775 -1.33896e-21)
(51.3132 9.01687 2.37783e-25)
(51.3158 9.01558 -2.86829e-25)
(51.3195 9.01373 -9.44524e-22)
(51.3249 9.01106 1.04168e-24)
(51.3329 9.00725 -3.13957e-21)
(51.345 9.00215 -8.38855e-21)
(51.3625 8.9956 8.89726e-21)
(51.387 8.98777 0)
(51.4189 8.97905 0)
(51.4583 8.96884 0)
(51.5061 8.95643 2.76081e-24)
(51.5651 8.9401 -3.16836e-24)
(51.643 8.91925 7.8828e-21)
(51.7457 8.89265 -1.27474e-20)
(51.8848 8.86125 1.41622e-20)
(52.0662 8.8302 -5.79629e-23)
(52.3209 8.8002 1.49441e-20)
(52.6355 8.77897 -1.31387e-25)
(52.9358 8.77416 5.5324e-21)
(53.2148 8.78836 -5.32863e-23)
(53.4628 8.81579 -6.551e-26)
(53.6818 8.85562 0)
(53.8772 8.90544 -5.37496e-26)
(54.0559 8.96625 -7.21727e-23)
(54.2248 9.03918 3.02628e-21)
(54.3894 9.12694 0)
(54.5544 9.23247 0)
(54.7237 9.3584 0)
(54.9 9.50744 0)
(55.0854 9.68017 6.15715e-22)
(55.2802 9.87714 3.90927e-22)
(55.4852 10.0973 9.05577e-24)
(55.6993 10.3382 1.16968e-23)
(55.9219 10.5941 -1.14495e-21)
(56.1533 10.874 2.37973e-22)
(56.393 11.1411 -2.90738e-22)
(56.648 11.4788 0)
(56.9319 11.7313 0)
(57.2353 12.1811 1.79701e-21)
(57.6732 12.4483 -1.63169e-21)
(51.3075 9.01707 -1.12736e-20)
(51.3064 9.01972 2.85071e-25)
(51.3076 9.01892 7.10611e-21)
(51.3079 9.01925 0)
(51.3085 9.01898 0)
(51.3092 9.01874 -3.28819e-21)
(51.3101 9.01832 8.38552e-27)
(51.3114 9.01769 1.33957e-21)
(51.3132 9.01679 -1.83378e-21)
(51.3158 9.01547 -1.72389e-25)
(51.3195 9.01358 -9.32315e-22)
(51.3249 9.01084 -9.60874e-25)
(51.3329 9.00692 3.1395e-21)
(51.3449 9.00166 8.38562e-21)
(51.3624 8.99489 -8.89338e-21)
(51.3867 8.98677 3.38115e-20)
(51.4183 8.9777 2.39532e-20)
(51.4573 8.96706 -1.50289e-23)
(51.5048 8.95407 2.30269e-23)
(51.5639 8.93687 -6.34349e-24)
(51.6428 8.9148 -2.39482e-20)
(51.7476 8.88617 3.87057e-20)
(51.8881 8.85248 -1.42233e-20)
(52.0717 8.8185 -3.07699e-20)
(52.3285 8.78459 1.55084e-20)
(52.6416 8.75866 3.47614e-23)
(52.9413 8.7503 -5.4908e-21)
(53.2196 8.76266 -1.39856e-20)
(53.467 8.79012 8.81987e-21)
(53.6855 8.83185 0)
(53.8806 8.88527 0)
(54.059 8.95139 -4.66091e-21)
(54.2278 9.03136 -2.93502e-21)
(54.3926 9.12799 3.81264e-21)
(54.5584 9.24425 0)
(54.7291 9.38267 -3.09904e-21)
(54.9076 9.54569 0)
(55.0963 9.73348 -6.142e-22)
(55.2955 9.9458 7.94263e-22)
(55.5063 10.1805 -9.8259e-22)
(55.7275 10.4345 1.25528e-21)
(55.9589 10.6993 3.83223e-22)
(56.1994 10.9882 2.46861e-22)
(56.4532 11.2506 -3.01817e-22)
(56.715 11.5919 0)
(57.0227 11.826 0)
(57.3311 12.2505 1.36181e-21)
(57.7884 12.5014 -1.63722e-21)
(51.3075 9.01702 -1.04609e-22)
(51.3064 9.0197 0)
(51.3076 9.01889 -1.42795e-20)
(51.3079 9.01922 0)
(51.3085 9.01895 0)
(51.3092 9.0187 3.28933e-21)
(51.3101 9.01827 -6.73207e-26)
(51.3114 9.01763 1.03275e-25)
(51.3132 9.01671 1.83439e-21)
(51.3158 9.01536 -1.71264e-25)
(51.3195 9.01342 1.87897e-21)
(51.3249 9.01061 4.5728e-21)
(51.3329 9.00658 -1.26922e-20)
(51.3448 9.00116 -1.82677e-23)
(51.3623 8.99415 1.43382e-23)
(51.3865 8.98572 -3.38059e-20)
(51.418 8.97626 -2.39626e-20)
(51.4568 8.96512 -1.02104e-23)
(51.5041 8.95145 -1.79489e-23)
(51.5631 8.93323 0)
(51.6421 8.90965 4.87998e-20)
(51.7474 8.87877 -2.59639e-20)
(51.8877 8.84199 2.95949e-20)
(52.0719 8.80368 6.208e-20)
(52.3283 8.76446 5.24291e-22)
(52.6407 8.73336 0)
(52.9402 8.72166 -2.27068e-20)
(53.2184 8.73268 1.38781e-20)
(53.4659 8.7609 -8.75101e-21)
(53.6847 8.80514 0)
(53.8802 8.8625 -2.32857e-22)
(54.0593 8.93379 -4.22327e-21)
(54.2292 9.02001 -7.53545e-22)
(54.3956 9.12389 -2.84845e-21)
(54.5637 9.24824 4.33929e-21)
(54.7376 9.39527 3.09652e-21)
(54.9204 9.56691 0)
(55.1148 9.7627 2.54603e-21)
(55.3212 9.98141 -8.08379e-22)
(55.5409 10.2197 9.99115e-22)
(55.7726 10.474 -2.53049e-21)
(56.0165 10.7331 1.56343e-21)
(56.2689 11.0142 -2.44912e-21)
(56.5408 11.2556 5.31341e-22)
(56.8121 11.5777 -6.64847e-23)
(57.1435 11.7774 4.04241e-21)
(57.4644 12.1503 -1.42204e-23)
(57.9327 12.3549 3.46531e-21)
(51.3075 9.01697 3.43653e-20)
(51.3064 9.01969 0)
(51.3076 9.01886 7.1723e-21)
(51.3079 9.01919 9.57294e-25)
(51.3085 9.01892 1.06996e-20)
(51.3092 9.01866 -2.13176e-25)
(51.3101 9.01822 -4.38793e-21)
(51.3114 9.01756 0)
(51.3132 9.01662 -3.65964e-21)
(51.3158 9.01524 0)
(51.3194 9.01325 3.7064e-21)
(51.3248 9.01037 -4.57534e-21)
(51.3328 9.00623 1.26968e-20)
(51.3448 9.00064 6.3573e-24)
(51.3622 8.9934 3.73509e-20)
(51.3864 8.98466 7.01539e-20)
(51.4179 8.97482 -4.45e-23)
(51.4565 8.9632 5.23756e-23)
(51.5036 8.94888 0)
(51.5624 8.92969 2.22903e-20)
(51.6413 8.90469 -6.60936e-20)
(51.7468 8.87165 5.37092e-20)
(51.8868 8.83209 -8.98446e-20)
(52.0714 8.78986 -3.14934e-20)
(52.3282 8.74562 -3.07593e-20)
(52.6406 8.70893 -1.43771e-22)
(52.9405 8.69338 -1.7609e-22)
(53.219 8.70244 2.88749e-20)
(53.4669 8.73075 -1.83457e-20)
(53.6862 8.77685 0)
(53.8825 8.83748 0)
(54.0625 8.91323 -1.48861e-22)
(54.2338 9.0049 6.16043e-21)
(54.4023 9.11503 0)
(54.5733 9.24613 -4.94539e-21)
(54.7512 9.39997 0)
(54.9395 9.5778 0)
(55.141 9.77824 -2.54247e-21)
(55.3564 9.99889 1.63676e-21)
(55.5868 10.2352 2.03893e-21)
(55.8306 10.4826 -2.55362e-21)
(56.0884 10.7278 -1.62723e-21)
(56.3534 10.9905 -4.02148e-21)
(56.642 11.2022 4.77253e-21)
(56.923 11.4902 0)
(57.2698 11.6454 2.43239e-23)
(57.5995 11.9564 7.97455e-21)
(58.067 12.0929 -7.80868e-21)
(51.3075 9.01691 -2.29889e-20)
(51.3064 9.01967 -1.17342e-24)
(51.3076 9.01883 1.45992e-20)
(51.3079 9.01916 -7.26617e-21)
(51.3085 9.01888 -1.07033e-20)
(51.3092 9.01862 -6.70708e-21)
(51.3101 9.01817 -4.42857e-21)
(51.3114 9.0175 0)
(51.3132 9.01653 3.66102e-21)
(51.3157 9.01512 -7.04981e-26)
(51.3194 9.01308 -3.70632e-21)
(51.3248 9.01012 -8.62741e-25)
(51.3327 9.00586 0)
(51.3447 9.00009 1.23347e-23)
(51.3622 8.9926 -3.73799e-20)
(51.3863 8.98352 -7.01808e-20)
(51.4177 8.97327 -5.09451e-20)
(51.4563 8.96112 5.15931e-20)
(51.5031 8.94608 0)
(51.5617 8.92581 -4.50124e-20)
(51.6405 8.89923 3.33625e-20)
(51.7461 8.86382 -5.38376e-20)
(51.8858 8.82117 1.2197e-19)
(52.0706 8.77458 1.24906e-22)
(52.3275 8.72476 -1.24765e-22)
(52.64 8.68206 -1.46084e-22)
(52.9402 8.66227 4.68628e-20)
(53.2191 8.66921 -2.91095e-20)
(53.4676 8.6975 -2.74541e-22)
(53.6877 8.7454 0)
(53.8848 8.80925 4.80301e-22)
(54.0662 8.88934 9.02464e-21)
(54.2393 8.98616 -6.16101e-21)
(54.4104 9.10199 0)
(54.585 9.23887 0)
(54.768 9.39801 6.51652e-21)
(54.9628 9.57971 -2.08385e-21)
(55.1727 9.78154 2.58861e-21)
(55.3982 9.99974 7.78688e-23)
(55.6402 10.2284 -4.18766e-21)
(55.8963 10.4621 2.6578e-21)
(56.1669 10.686 3.28305e-21)
(56.4428 10.9208 8.22175e-21)
(56.7428 11.0956 -1.10003e-20)
(57.0298 11.3393 -1.19016e-20)
(57.3802 11.4419 1.34358e-20)
(57.7088 11.6886 9.57613e-22)
(58.16 11.7464 1.0228e-21)
(51.3075 9.01685 0)
(51.3064 9.01965 0)
(51.3076 9.0188 -1.46022e-20)
(51.3079 9.01914 7.26777e-21)
(51.3085 9.01885 0)
(51.3091 9.01858 6.70948e-21)
(51.3101 9.01812 8.82175e-21)
(51.3114 9.01743 -3.28486e-25)
(51.3132 9.01644 0)
(51.3157 9.01499 0)
(51.3194 9.0129 -7.30515e-21)
(51.3247 9.00985 0)
(51.3327 9.00547 0)
(51.3446 8.99951 -3.55443e-20)
(51.3621 8.99175 -7.7145e-20)
(51.3861 8.98233 7.27153e-20)
(51.4175 8.97164 5.09177e-20)
(51.4559 8.95892 -1.04234e-19)
(51.5026 8.94311 -3.85163e-23)
(51.5609 8.92168 2.26369e-20)
(51.6395 8.89343 -6.91499e-20)
(51.7451 8.85553 0)
(51.8843 8.8096 -6.15544e-20)
(52.069 8.75838 0)
(52.326 8.70259 0)
(52.6384 8.65341 1.48357e-22)
(52.9388 8.62898 -7.11611e-20)
(53.2182 8.63347 2.9751e-20)
(53.4674 8.66154 1.86284e-20)
(53.6883 8.7111 0)
(53.8866 8.77801 1.49879e-20)
(54.0696 8.86219 6.08402e-22)
(54.245 8.96375 1.34989e-20)
(54.4192 9.08456 6.10488e-21)
(54.5982 9.22608 2.57917e-21)
(54.7869 9.38874 -1.47603e-20)
(54.9892 9.57172 2.11982e-21)
(55.2079 9.77137 -2.63231e-21)
(55.4437 9.98248 -3.40518e-21)
(55.6966 10.198 6.43326e-21)
(55.9634 10.4113 -7.95652e-21)
(56.2433 10.6074 -6.75351e-21)
(56.5257 10.8071 1.02704e-20)
(56.829 10.9399 1.24429e-21)
(57.1142 11.1341 -1.21547e-20)
(57.4551 11.181 1.28475e-20)
(57.7689 11.3654 -9.55083e-22)
(58.1899 11.3474 -1.02152e-21)
(51.3075 9.01679 -3.40696e-24)
(51.3064 9.01963 0)
(51.3076 9.01876 1.48586e-20)
(51.3079 9.01911 -1.96594e-24)
(51.3084 9.01881 1.35265e-24)
(51.3091 9.01854 -2.50027e-24)
(51.3101 9.01806 -8.90117e-21)
(51.3114 9.01736 1.08746e-20)
(51.3131 9.01634 0)
(51.3157 9.01486 -9.39558e-21)
(51.3193 9.01271 7.30783e-21)
(51.3247 9.00957 1.96115e-24)
(51.3326 9.00506 -2.35901e-24)
(51.3445 8.9989 3.55574e-20)
(51.3619 8.99086 7.71484e-20)
(51.386 8.98106 -7.26723e-20)
(51.4173 8.9699 -4.73507e-23)
(51.4556 8.95658 5.26954e-20)
(51.5021 8.93994 3.9372e-23)
(51.5602 8.91729 0)
(51.6386 8.88725 6.94381e-20)
(51.7442 8.84672 1.12657e-19)
(51.8831 8.79729 0)
(52.068 8.74116 0)
(52.325 8.67899 -2.48188e-22)
(52.6375 8.62288 3.09127e-22)
(52.9383 8.59344 4.75568e-20)
(53.2183 8.59522 -2.97568e-20)
(53.4683 8.62289 -3.01614e-22)
(53.6902 8.67398 7.6224e-22)
(53.8898 8.74378 -1.64531e-20)
(54.0745 8.83177 2.01014e-20)
(54.2523 8.93758 -1.19083e-20)
(54.4299 9.06253 -1.63684e-20)
(54.6134 9.20734 0)
(54.808 9.3715 6.6177e-21)
(55.0177 9.55289 2.15612e-21)
(55.245 9.74657 -8.1351e-21)
(55.49 9.94591 6.86614e-21)
(55.7516 10.1428 -4.38787e-21)
(56.0255 10.3303 0)
(56.3096 10.4933 -1.68991e-21)
(56.5919 10.6532 4.72596e-23)
(56.8893 10.7417 1.04144e-20)
(57.1629 10.8855 -2.60331e-20)
(57.4825 10.8793 -3.39476e-22)
(57.7686 11.0079 1.56079e-20)
(58.1477 10.9242 -2.1181e-21)
(51.3075 9.01672 4.76929e-20)
(51.3064 9.01962 -1.35026e-20)
(51.3076 9.01873 1.51078e-20)
(51.3079 9.01907 1.49195e-20)
(51.3084 9.01877 -1.2874e-25)
(51.3091 9.01849 1.64467e-24)
(51.3101 9.01801 1.78486e-20)
(51.3113 9.01728 -1.0879e-20)
(51.3131 9.01624 1.95036e-25)
(51.3157 9.01472 9.39933e-21)
(51.3193 9.0125 0)
(51.3246 9.00928 -1.81342e-20)
(51.3325 9.00462 -5.51025e-24)
(51.3444 8.99825 6.6157e-24)
(51.3618 8.98992 2.55546e-23)
(51.3858 8.97972 1.50583e-19)
(51.4171 8.96807 4.83452e-23)
(51.4553 8.95411 -5.69009e-23)
(51.5015 8.93659 0)
(51.5594 8.91263 0)
(51.6376 8.88069 0)
(51.743 8.83738 -1.13108e-19)
(51.8815 8.78421 -9.88788e-24)
(52.0661 8.72286 6.88892e-20)
(52.323 8.65388 0)
(52.6354 8.59038 0)
(52.9366 8.55555 0)
(53.2171 8.55434 -3.06095e-20)
(53.468 8.5814 3.88801e-20)
(53.6911 8.63386 -2.563e-20)
(53.8922 8.70635 -1.39383e-20)
(54.0791 8.79781 -2.26556e-20)
(54.2597 8.90727 -1.14682e-20)
(54.4411 9.03537 8.24402e-21)
(54.6297 9.18195 0)
(54.8307 9.34539 0)
(55.0478 9.52218 4.33172e-21)
(55.2831 9.70607 5.34201e-21)
(55.5358 9.88922 -3.46107e-21)
(55.8033 10.0629 4.3798e-21)
(56.0801 10.22 -1.13195e-20)
(56.3623 10.3468 2.79123e-20)
(56.6375 10.4651 -1.91516e-20)
(56.9202 10.51 0)
(57.1734 10.6065 2.52036e-20)
(57.4625 10.5538 -2.85056e-20)
(57.7121 10.6364 -2.01677e-21)
(58.0429 10.502 2.12622e-21)
(51.3075 9.01665 -9.58507e-20)
(51.3065 9.0196 1.35125e-20)
(51.3076 9.01869 -2.99812e-20)
(51.3079 9.01904 -1.4926e-20)
(51.3084 9.01873 0)
(51.3091 9.01844 8.76265e-25)
(51.3101 9.01795 9.02134e-21)
(51.3113 9.0172 0)
(51.3131 9.01613 -1.45324e-20)
(51.3156 9.01457 0)
(51.3193 9.01229 3.5317e-25)
(51.3246 9.00897 1.81406e-20)
(51.3325 9.00416 0)
(51.3442 8.99756 0)
(51.3617 8.98891 2.59858e-23)
(51.3857 8.9783 -1.50742e-19)
(51.4169 8.96612 4.91419e-23)
(51.4549 8.95147 -1.1216e-19)
(51.5009 8.93303 0)
(51.5586 8.90767 0)
(51.6365 8.87371 0)
(51.7416 8.82745 2.34011e-22)
(51.8798 8.77029 -2.49751e-22)
(52.0644 8.7034 -6.86417e-20)
(52.3212 8.62717 0)
(52.6336 8.55579 0)
(52.9352 8.51514 -4.92191e-20)
(53.2165 8.51063 6.11683e-20)
(53.4684 8.53688 5.30841e-22)
(53.6929 8.59051 2.48499e-20)
(53.8957 8.66545 1.59194e-20)
(54.0848 8.75998 -2.06901e-20)
(54.2684 8.87243 1.3071e-20)
(54.4539 9.00261 0)
(54.6476 9.14933 0)
(54.8548 9.30974 -1.7374e-20)
(55.0786 9.47891 4.49393e-21)
(55.3204 9.64941 5.54573e-21)
(55.5781 9.81255 -7.18129e-21)
(55.8476 9.95943 -4.54952e-21)
(56.1219 10.0836 1.15306e-20)
(56.3957 10.1732 -1.4039e-20)
(56.6562 10.2509 0)
(56.9164 10.2558 0)
(57.1419 10.3112 4.75719e-21)
(57.3944 10.2213 0)
(57.6029 10.2686 4.06968e-21)
(57.8838 10.0994 0)
(51.3075 9.01658 4.81472e-20)
(51.3065 9.01958 0)
(51.3075 9.01865 -3.04963e-20)
(51.3079 9.01901 -1.5179e-20)
(51.3084 9.01869 -2.23664e-20)
(51.3091 9.0184 -1.76193e-24)
(51.31 9.01788 -3.60236e-20)
(51.3113 9.01712 -2.03743e-24)
(51.3131 9.01602 1.45382e-20)
(51.3156 9.01441 5.50437e-25)
(51.3192 9.01207 1.41478e-20)
(51.3245 9.00864 0)
(51.3324 9.00367 0)
(51.3441 8.99684 0)
(51.3616 8.98785 -8.21448e-20)
(51.3855 8.97679 1.55902e-19)
(51.4166 8.96405 -1.12308e-19)
(51.4545 8.94868 1.12236e-19)
(51.5003 8.92923 -4.19188e-23)
(51.5576 8.9024 0)
(51.6353 8.86627 -1.78507e-22)
(51.7401 8.81688 1.96189e-22)
(51.878 8.75547 0)
(52.0623 8.6827 1.41984e-19)
(52.3188 8.59874 -2.59554e-22)
(52.6311 8.51897 3.23281e-22)
(52.9332 8.47207 4.96141e-20)
(53.2153 8.46393 4.17215e-22)
(53.4684 8.48913 -3.87934e-20)
(53.6944 8.54371 -2.63139e-20)
(53.8992 8.62081 -1.03139e-21)
(54.0909 8.71796 2.19763e-20)
(54.2778 8.83265 0)
(54.4676 8.9637 0)
(54.6665 9.10881 1.10227e-20)
(54.8795 9.26384 1.38706e-20)
(55.1091 9.42248 -8.852e-21)
(55.3555 9.57638 -5.74214e-21)
(55.6152 9.71643 -1.33068e-22)
(55.8823 9.83419 9.17325e-21)
(56.1486 9.92464 -1.17337e-20)
(56.4077 9.97823 -3.47657e-22)
(56.6474 10.019 1.31656e-20)
(56.8793 9.98965 2.72887e-21)
(57.0726 10.0116 -3.19459e-21)
(57.2856 9.89464 2.99722e-20)
(57.453 9.91733 -6.81697e-20)
(57.6862 9.72775 3.49038e-20)
(51.3075 9.0165 -4.18347e-24)
(51.3065 9.01956 -2.78792e-20)
(51.3075 9.01861 6.12611e-20)
(51.3078 9.01898 1.51867e-20)
(51.3084 9.01865 2.2376e-20)
(51.3091 9.01835 1.6785e-24)
(51.31 9.01782 1.8057e-20)
(51.3113 9.01704 1.3367e-24)
(51.3131 9.01591 -4.53904e-25)
(51.3156 9.01425 5.47535e-25)
(51.3192 9.01183 -1.2957e-22)
(51.3244 9.00829 2.63649e-26)
(51.3323 9.00315 0)
(51.344 8.99607 -7.50679e-20)
(51.3614 8.98673 8.2159e-20)
(51.3853 8.97519 -1.55917e-19)
(51.4164 8.96184 1.12298e-19)
(51.4541 8.9457 1.16704e-19)
(51.4996 8.9252 -1.25212e-23)
(51.5567 8.89678 -7.86509e-23)
(51.634 8.85835 -7.6796e-23)
(51.7385 8.80563 -1.19851e-19)
(51.876 8.7397 -2.58728e-22)
(52.06 8.66068 -1.42014e-19)
(52.3162 8.56849 0)
(52.6284 8.4798 3.18881e-22)
(52.9309 8.42619 -3.97261e-22)
(53.214 8.41405 3.27905e-20)
(53.4685 8.43795 -6.23498e-22)
(53.6963 8.49323 -3.3663e-22)
(53.9033 8.57217 -3.31533e-20)
(54.0977 8.67142 2.26004e-20)
(54.2882 8.78749 -1.67228e-21)
(54.4823 8.91815 1.96716e-20)
(54.6861 9.05986 -1.37607e-20)
(54.9042 9.20718 0)
(55.1381 9.35262 0)
(55.3867 9.48729 -5.9383e-21)
(55.6446 9.6022 7.24557e-21)
(55.9046 9.69004 -1.69437e-22)
(56.1575 9.74781 2.94806e-20)
(56.3967 9.76863 -1.4537e-20)
(56.6107 9.77747 4.49507e-21)
(56.8107 9.72101 -2.73485e-21)
(56.9701 9.71782 -2.63423e-20)
(57.1439 9.58319 2.98843e-20)
(57.2731 9.59088 0)
(57.4627 9.39173 3.57625e-20)
(51.3075 9.01642 -9.88609e-20)
(51.3065 9.01954 -2.84574e-20)
(51.3075 9.01857 -3.07654e-20)
(51.3078 9.01894 3.08898e-20)
(51.3084 9.01861 -2.54457e-24)
(51.3091 9.01829 -2.8061e-20)
(51.31 9.01775 0)
(51.3113 9.01695 2.20219e-20)
(51.313 9.01578 1.44526e-20)
(51.3155 9.01407 9.0372e-21)
(51.3191 9.01158 -2.79245e-20)
(51.3244 9.00793 -2.09961e-25)
(51.3322 9.00261 0)
(51.3438 8.99525 1.50979e-19)
(51.3612 8.98553 1.69385e-19)
(51.385 8.97349 1.61212e-19)
(51.4161 8.9595 -5.18721e-23)
(51.4537 8.94253 -1.16744e-19)
(51.4989 8.92089 0)
(51.5556 8.89079 -9.4763e-23)
(51.6326 8.8499 1.06685e-22)
(51.7367 8.79365 1.20076e-19)
(51.8737 8.72289 2.63275e-22)
(52.0574 8.63725 -2.79566e-22)
(52.3132 8.53632 7.10095e-20)
(52.6253 8.43814 8.31262e-20)
(52.9283 8.37733 -5.08098e-20)
(53.2124 8.36083 -1.28347e-19)
(53.4685 8.38312 -1.29116e-21)
(53.6982 8.43883 2.5828e-20)
(53.9077 8.51923 3.52152e-20)
(54.1051 8.61999 2.85861e-22)
(54.2992 8.73655 -2.76349e-20)
(54.4976 8.86548 -1.74641e-20)
(54.7059 9.00198 5.72423e-21)
(54.9281 9.13941 -2.89843e-20)
(55.1644 9.26938 -9.55967e-21)
(55.4121 9.38291 1.14237e-20)
(55.6645 9.47175 -7.42435e-21)
(55.9128 9.53035 -1.43964e-20)
(56.1479 9.55803 4.19297e-20)
(56.363 9.55057 -2.95392e-20)
(56.5484 9.53349 3.71513e-20)
(56.7154 9.45719 -9.20319e-20)
(56.8413 9.43636 5.25315e-20)
(56.9787 9.29245 0)
(57.0733 9.29191 7.22485e-20)
(57.225 9.09121 -7.3676e-20)
(51.3074 9.01634 9.88981e-20)
(51.3065 9.01952 8.48462e-20)
(51.3075 9.01853 -3.12861e-20)
(51.3078 9.0189 -6.2048e-20)
(51.3084 9.01856 0)
(51.3091 9.01824 2.8072e-20)
(51.31 9.01768 0)
(51.3113 9.01685 -2.20305e-20)
(51.313 9.01565 -1.44574e-20)
(51.3155 9.01389 -9.04178e-21)
(51.3191 9.01132 2.76652e-20)
(51.3243 9.00754 1.78847e-20)
(51.3321 9.00203 -5.3872e-20)
(51.3437 8.99439 -7.58978e-20)
(51.361 8.98426 -1.69419e-19)
(51.3848 8.97167 -1.61258e-19)
(51.4158 8.957 0)
(51.4532 8.93914 0)
(51.4982 8.9163 1.30406e-23)
(51.5545 8.8844 5.32832e-20)
(51.631 8.84089 -1.5755e-19)
(51.7347 8.78089 0)
(51.8713 8.705 0)
(52.0545 8.61232 0)
(52.3098 8.50211 -1.41893e-19)
(52.6217 8.39386 -1.69372e-19)
(52.9253 8.32535 5.16238e-20)
(53.2106 8.30408 6.45944e-20)
(53.4684 8.32443 0)
(53.7004 8.38025 0)
(53.9125 8.46169 2.14683e-21)
(54.1131 8.56333 -2.42201e-20)
(54.3109 8.67941 2.76294e-20)
(54.5133 8.80527 -4.53263e-21)
(54.7255 8.93482 1.71616e-20)
(54.9504 9.06042 1.45251e-20)
(55.1868 9.17317 -1.50805e-22)
(55.4306 9.26451 1.18587e-20)
(55.6735 9.32751 0)
(55.9062 9.35881 -3.88156e-20)
(56.1198 9.36021 3.01114e-20)
(56.3084 9.32954 0)
(56.4639 9.29286 0)
(56.5987 9.20317 2.81158e-21)
(56.6931 9.17118 0)
(56.7978 9.02418 3.85678e-21)
(56.8624 9.01992 -4.26127e-21)
(56.9826 8.82371 2.26349e-21)
(51.3074 9.01626 -1.00596e-19)
(51.3065 9.01949 2.84557e-22)
(51.3075 9.01849 -3.17921e-20)
(51.3078 9.01887 6.25872e-20)
(51.3084 9.01852 -2.3014e-20)
(51.3091 9.01818 -3.42491e-24)
(51.31 9.01761 0)
(51.3113 9.01675 1.41009e-24)
(51.313 9.01552 -1.70168e-24)
(51.3155 9.0137 0)
(51.319 9.01104 -1.41549e-22)
(51.3242 9.00713 -1.78917e-20)
(51.332 9.00142 5.38933e-20)
(51.3435 8.99347 -1.54855e-19)
(51.3608 8.98291 0)
(51.3845 8.96974 0)
(51.4154 8.95434 0)
(51.4527 8.93553 0)
(51.4974 8.9114 -1.33095e-23)
(51.5534 8.87757 -5.32972e-20)
(51.6294 8.83127 3.18e-19)
(51.7325 8.76728 2.55343e-22)
(51.8686 8.68593 -2.72482e-22)
(52.0513 8.58582 1.51446e-19)
(52.306 8.46577 7.17043e-20)
(52.6177 8.34682 1.70962e-19)
(52.9218 8.27008 -8.2407e-22)
(53.2085 8.24361 1.02688e-21)
(53.4682 8.26168 -4.20541e-20)
(53.7027 8.31724 0)
(53.9176 8.39926 0)
(54.1216 8.50109 2.49034e-20)
(54.323 8.61569 -3.4808e-21)
(54.529 8.73713 4.59765e-21)
(54.7441 8.85813 -4.06028e-20)
(54.97 8.97031 1.4975e-20)
(55.2042 9.06471 9.43518e-21)
(55.4408 9.1337 -1.23355e-20)
(55.6708 9.17217 3.87277e-20)
(55.8848 9.17915 2.0018e-20)
(56.0744 9.15869 -5.59864e-21)
(56.2353 9.11015 -6.90087e-20)
(56.3615 9.0597 3.74341e-20)
(56.4657 8.96215 -5.16713e-20)
(56.5319 8.92417 5.37778e-20)
(56.6076 8.77823 5.46898e-20)
(56.6477 8.77373 -6.86475e-20)
(56.7423 8.58565 0)
(51.3074 9.01617 2.0209e-19)
(51.3065 9.01947 -5.78236e-20)
(51.3075 9.01844 6.30969e-20)
(51.3078 9.01883 2.54451e-22)
(51.3084 9.01847 2.30233e-20)
(51.3091 9.01812 7.06551e-24)
(51.31 9.01753 -4.36823e-24)
(51.3112 9.01665 2.21934e-20)
(51.313 9.01538 1.77511e-24)
(51.3154 9.0135 -2.14126e-24)
(51.319 9.01075 -1.36342e-20)
(51.3241 9.0067 6.44484e-25)
(51.3318 9.00077 -5.44453e-20)
(51.3433 8.99249 -1.48021e-21)
(51.3606 8.98147 1.77097e-19)
(51.3842 8.96768 4.60805e-23)
(51.415 8.95149 -5.4656e-23)
(51.4522 8.93167 0)
(51.4966 8.90616 -1.35772e-23)
(51.5522 8.87028 -8.45457e-23)
(51.6277 8.821 -1.60334e-19)
(51.73 8.75277 0)
(51.8656 8.66563 1.48906e-19)
(52.0476 8.55764 -3.04696e-19)
(52.3016 8.42717 -5.83487e-22)
(52.6131 8.29691 -8.60521e-20)
(52.9178 8.21138 5.35791e-20)
(53.206 8.17925 -1.05237e-21)
(53.4679 8.19466 2.13922e-21)
(53.7051 8.24956 -1.67228e-21)
(53.9231 8.33166 -2.20269e-21)
(54.1305 8.43295 -4.17585e-20)
(54.3353 8.54506 2.87607e-20)
(54.5444 8.6608 4.66294e-21)
(54.7613 8.77186 1.75502e-20)
(54.9864 8.86945 -3.01647e-20)
(55.2158 8.94503 -9.72531e-21)
(55.4422 8.99239 0)
(55.6563 9.00851 1.04498e-22)
(55.8492 8.99487 -9.85385e-21)
(56.0138 8.95713 0)
(56.1471 8.89595 7.71771e-21)
(56.2455 8.83671 -4.7781e-21)
(56.3218 8.73595 5.75123e-21)
(56.3633 8.69577 0)
(56.4139 8.55386 3.91681e-21)
(56.4347 8.55154 0)
(56.5082 8.37308 0)
(51.3074 9.01607 -1.01504e-19)
(51.3065 9.01945 5.84405e-20)
(51.3075 9.01839 -6.41363e-20)
(51.3078 9.01879 3.22092e-20)
(51.3084 9.01842 0)
(51.3091 9.01806 0)
(51.31 9.01745 3.70844e-20)
(51.3112 9.01654 -2.22023e-20)
(51.3129 9.01523 0)
(51.3154 9.01329 -1.23183e-24)
(51.3189 9.01044 1.48498e-24)
(51.324 9.00624 -3.53478e-20)
(51.3317 9.00009 5.44667e-20)
(51.3431 8.99146 1.56438e-19)
(51.3603 8.97994 2.50581e-21)
(51.3839 8.96549 0)
(51.4146 8.94845 0)
(51.4516 8.92755 4.04421e-23)
(51.4958 8.90056 -4.70823e-23)
(51.5509 8.86248 1.13169e-19)
(51.6258 8.81004 -1.14747e-22)
(51.7274 8.7373 0)
(51.8624 8.64401 -2.99902e-19)
(52.0436 8.52769 1.53228e-19)
(52.2967 8.38622 0)
(52.6078 8.24399 0)
(52.9132 8.14911 -5.44331e-20)
(53.2032 8.11082 6.89104e-20)
(53.4675 8.12314 4.25768e-20)
(53.7076 8.17696 0)
(53.9289 8.25858 0)
(54.1396 8.35859 -2.87092e-22)
(54.3477 8.46722 -3.61171e-20)
(54.5591 8.5761 9.17401e-21)
(54.7765 8.6761 -2.40349e-20)
(54.9988 8.75842 -2.21897e-22)
(55.2208 8.81541 2.96296e-20)
(55.4344 8.8426 -1.21231e-20)
(55.6304 8.83923 2.4289e-20)
(55.8008 8.80896 -9.04717e-20)
(55.9403 8.75844 4.99889e-20)
(56.0473 8.68923 0)
(56.12 8.62532 4.79675e-21)
(56.1719 8.52484 0)
(56.1917 8.48503 -1.17483e-19)
(56.2217 8.34933 1.26062e-19)
(56.2266 8.3502 0)
(56.283 8.18187 0)
(51.3074 9.01598 0)
(51.3065 9.01943 -2.93732e-20)
(51.3075 9.01834 -5.01099e-22)
(51.3078 9.01875 -6.39386e-20)
(51.3084 9.01836 -4.70084e-20)
(51.3091 9.018 2.89589e-20)
(51.31 9.01737 -3.70996e-20)
(51.3112 9.01643 -2.81811e-24)
(51.3129 9.01508 2.85813e-20)
(51.3154 9.01307 -1.73004e-20)
(51.3188 9.01012 1.24322e-24)
(51.3239 9.00576 3.53578e-20)
(51.3315 8.99936 5.97763e-24)
(51.3429 8.99036 1.59346e-19)
(51.36 8.97831 -1.79711e-19)
(51.3835 8.96314 -3.49315e-19)
(51.4141 8.94521 2.82712e-23)
(51.451 8.92314 0)
(51.4949 8.89457 0)
(51.5495 8.85415 -1.13193e-19)
(51.6238 8.79833 1.16781e-22)
(51.7245 8.72081 5.37109e-22)
(51.8587 8.62101 1.51008e-19)
(52.039 8.4959 1.58537e-19)
(52.2912 8.34281 -5.70136e-22)
(52.602 8.18796 7.10165e-22)
(52.9081 8.08312 5.48651e-20)
(53.1999 8.03817 -6.57133e-20)
(53.4669 8.04694 -2.68751e-21)
(53.7102 8.09921 -2.43509e-20)
(53.9349 8.17978 -4.01426e-20)
(54.149 8.27776 2.84831e-20)
(54.3599 8.38195 -7.23624e-21)
(54.5728 8.48297 -9.58788e-21)
(54.7891 8.57113 3.59699e-20)
(55.0066 8.63802 3.11941e-20)
(55.2189 8.67728 -1.94432e-20)
(55.4176 8.68639 -5.03913e-20)
(55.594 8.66682 0)
(55.7416 8.62386 1.01098e-20)
(55.8566 8.56471 -5.77545e-20)
(55.9393 8.49119 5.49753e-20)
(55.989 8.42581 8.30164e-20)
(56.0196 8.32793 -9.352e-20)
(56.0207 8.29005 6.92797e-21)
(56.0337 8.16164 0)
(56.0255 8.16575 -4.41269e-21)
(56.068 8.00773 -1.54338e-19)
(51.3074 9.01588 0)
(51.3065 9.0194 0)
(51.3075 9.01829 6.46783e-20)
(51.3078 9.0187 3.2503e-20)
(51.3084 9.01831 4.70278e-20)
(51.3091 9.01793 1.67075e-22)
(51.31 9.01728 0)
(51.3112 9.01632 0)
(51.3129 9.01491 -2.85877e-20)
(51.3153 9.01284 1.69473e-22)
(51.3188 9.00978 -2.60607e-20)
(51.3238 9.00525 -3.24504e-24)
(51.3314 8.99859 -5.52077e-20)
(51.3427 8.98919 1.37692e-21)
(51.3597 8.97657 0)
(51.3831 8.96064 -5.31838e-21)
(51.4136 8.94174 2.20233e-23)
(51.4504 8.91842 -3.43737e-23)
(51.494 8.88816 1.42959e-23)
(51.5481 8.84525 -1.21944e-22)
(51.6217 8.78583 1.18801e-22)
(51.7214 8.70324 -2.68887e-19)
(51.8547 8.59655 1.57183e-19)
(52.034 8.46218 2.95419e-21)
(52.2851 8.29685 7.58349e-20)
(52.5953 8.1287 9.04442e-20)
(52.9023 8.01329 2.35464e-21)
(53.1961 7.96113 3.25764e-20)
(53.466 7.96588 0)
(53.7128 8.01608 5.6071e-20)
(53.941 8.09501 3.11808e-20)
(54.1584 8.1902 5.7026e-21)
(54.3716 8.28912 -2.98998e-20)
(54.5849 8.38148 9.71835e-21)
(54.7987 8.45737 1.25961e-20)
(55.0094 8.50919 3.18325e-20)
(55.21 8.53214 2.05487e-20)
(55.3922 8.52574 -1.26243e-20)
(55.5483 8.49339 -3.2917e-20)
(55.6735 8.44143 8.21853e-20)
(55.7656 8.37726 -4.46942e-20)
(55.8262 8.30236 -5.6292e-20)
(55.8554 8.23785 6.33283e-20)
(55.8678 8.14408 9.50551e-20)
(55.853 8.10906 -1.18571e-19)
(55.8517 7.98844 -4.01977e-21)
(55.8327 7.99556 4.43945e-21)
(55.8637 7.84762 1.55351e-19)
(51.3074 9.01577 -1.04963e-19)
(51.3065 9.01938 2.15477e-23)
(51.3075 9.01824 -1.28699e-23)
(51.3078 9.01866 -9.80413e-20)
(51.3084 9.01825 4.76586e-20)
(51.3091 9.01786 -2.91398e-20)
(51.3099 9.0172 9.22625e-26)
(51.3112 9.0162 -2.67803e-24)
(51.3129 9.01474 -3.39845e-24)
(51.3153 9.01259 1.72234e-22)
(51.3187 9.00942 5.18083e-20)
(51.3237 9.00472 8.15057e-24)
(51.3312 8.99777 1.66057e-19)
(51.3424 8.98795 1.34376e-21)
(51.3594 8.97472 1.25376e-23)
(51.3826 8.95797 7.14911e-19)
(51.4131 8.93802 -2.63895e-19)
(51.4497 8.91337 0)
(51.493 8.8813 7.23636e-24)
(51.5467 8.83573 -8.30189e-24)
(51.6194 8.77249 1.74856e-19)
(51.718 8.68453 -4.17166e-21)
(51.8503 8.57056 -1.56909e-19)
(52.0284 8.42645 -1.60929e-19)
(52.2783 8.24827 -1.53848e-19)
(52.5879 8.06613 -1.34818e-19)
(52.8957 7.93952 -1.13407e-19)
(53.1917 7.87957 -6.98665e-20)
(53.4649 7.87977 -2.81293e-21)
(53.7154 7.92738 -2.46948e-20)
(53.9472 8.00405 4.62933e-21)
(54.1677 8.09576 -1.17255e-20)
(54.3826 8.18866 2.96603e-20)
(54.5953 8.27181 9.54323e-21)
(54.805 8.33542 -2.47004e-20)
(55.0072 8.373 2.00037e-22)
(55.1945 8.38153 0)
(55.3592 8.3624 1.30503e-20)
(55.495 8.32064 0)
(55.5988 8.26296 4.18263e-20)
(55.6696 8.19672 6.67354e-22)
(55.7107 8.12262 -1.20811e-19)
(55.7221 8.06064 7.86678e-20)
(55.7188 7.97191 9.57563e-20)
(55.6906 7.94029 7.69513e-21)
(55.6774 7.8277 -1.25051e-19)
(55.649 7.83742 0)
(55.6705 7.69949 -1.51607e-19)
(51.3074 9.01566 2.10792e-19)
(51.3066 9.01935 0)
(51.3075 9.01819 -6.62487e-20)
(51.3078 9.01861 9.86018e-20)
(51.3084 9.0182 -4.76794e-20)
(51.309 9.01779 2.94869e-20)
(51.3099 9.0171 4.48201e-24)
(51.3111 9.01607 -2.24848e-20)
(51.3128 9.01457 4.25021e-26)
(51.3152 9.01233 1.69715e-20)
(51.3186 9.00904 -2.57419e-20)
(51.3236 9.00415 0)
(51.331 8.99691 -1.10853e-19)
(51.3421 8.98663 -1.6225e-19)
(51.3589 8.97275 3.794e-19)
(51.3821 8.95512 -7.25715e-19)
(51.4125 8.93405 -4.53309e-21)
(51.449 8.90796 -2.7353e-24)
(51.492 8.87397 -4.65027e-25)
(51.5451 8.82557 -1.21006e-19)
(51.617 8.75826 -3.52498e-19)
(51.7143 8.66462 2.7255e-19)
(51.8455 8.54297 -1.61961e-19)
(52.0221 8.38863 1.66292e-19)
(52.2706 8.19698 7.6782e-20)
(52.5796 8.00016 -5.25079e-22)
(52.8882 7.86171 5.61504e-20)
(53.1868 7.79337 3.29047e-20)
(53.4634 7.78847 2.78182e-21)
(53.7178 7.83293 3.64643e-21)
(53.9534 7.90674 -4.5466e-21)
(54.1767 7.9943 0)
(54.3926 8.0806 3.84203e-20)
(54.6037 8.15427 -2.93919e-20)
(54.8078 8.20597 0)
(55 8.23057 -1.60514e-20)
(55.1729 8.22685 2.09081e-20)
(55.3196 8.19789 -2.58796e-20)
(55.4357 8.14985 0)
(55.5195 8.08925 4.21849e-20)
(55.5712 8.02326 -6.5206e-20)
(55.5948 7.95154 3.36276e-23)
(55.5912 7.89314 9.93583e-21)
(55.574 7.80975 0)
(55.5354 7.78188 1.13876e-19)
(55.5115 7.67699 -1.30016e-19)
(55.4758 7.68907 1.44388e-19)
(55.4896 7.56109 -1.52033e-19)
(51.3074 9.01555 -1.05855e-19)
(51.3066 9.01933 0)
(51.3075 9.01813 1.3306e-19)
(51.3078 9.01857 -9.96842e-20)
(51.3084 9.01814 0)
(51.309 9.01772 1.67397e-22)
(51.3099 9.01701 -3.79004e-20)
(51.3111 9.01594 4.50509e-20)
(51.3128 9.01438 -3.37506e-24)
(51.3152 9.01207 -1.66308e-20)
(51.3185 9.00865 -5.61225e-24)
(51.3235 9.00355 -1.63322e-23)
(51.3308 8.99599 1.96431e-23)
(51.3418 8.98522 0)
(51.3585 8.97065 -3.79625e-19)
(51.3815 8.95208 3.65712e-19)
(51.4118 8.92981 2.68491e-19)
(51.4483 8.90218 7.26212e-23)
(51.491 8.86613 6.02634e-20)
(51.5436 8.81471 2.43529e-19)
(51.6143 8.7431 1.77591e-19)
(51.7103 8.64345 1.17297e-22)
(51.8401 8.51373 1.6164e-19)
(52.0152 8.34868 -1.65036e-19)
(52.2621 8.14293 -1.19676e-21)
(52.5702 7.93076 9.69875e-22)
(52.8799 7.7798 0)
(53.1811 7.70245 0)
(53.4614 7.69186 4.27508e-20)
(53.7201 7.73259 2.90843e-20)
(53.9594 7.80294 -1.42507e-22)
(54.1853 7.88579 -1.90519e-22)
(54.4016 7.96508 7.98573e-21)
(54.6098 8.02928 -2.4363e-22)
(54.8071 8.0698 0)
(54.9881 8.08301 1.65795e-20)
(55.1458 8.06941 -6.27362e-20)
(55.2749 8.03344 1.30761e-20)
(55.3723 7.98185 0)
(55.4377 7.92074 -4.25227e-20)
(55.4725 7.85668 -6.21922e-22)
(55.4805 7.7885 5.70087e-20)
(55.4643 7.73423 -1.00395e-20)
(55.4345 7.65619 6.05822e-21)
(55.3881 7.63204 -7.15123e-21)
(55.3539 7.53407 8.20562e-21)
(55.3134 7.54818 0)
(55.3214 7.42957 4.791e-21)
(51.3074 9.01544 9.25469e-24)
(51.3066 9.0193 -2.21224e-23)
(51.3075 9.01807 -6.67987e-20)
(51.3078 9.01852 6.66598e-20)
(51.3084 9.01807 0)
(51.309 9.01764 -8.93869e-20)
(51.3099 9.0169 3.79213e-20)
(51.3111 9.0158 5.19851e-23)
(51.3127 9.01419 -1.01802e-23)
(51.3151 9.01178 1.66419e-20)
(51.3184 9.00823 5.20865e-24)
(51.3233 9.00291 3.40106e-20)
(51.3306 8.99502 1.11678e-19)
(51.3414 8.98373 -1.65842e-19)
(51.358 8.96842 3.88897e-19)
(51.3809 8.94883 3.76539e-19)
(51.4111 8.92527 3.02526e-24)
(51.4475 8.896 -1.47947e-22)
(51.49 8.85775 -6.02821e-20)
(51.5419 8.80314 1.40733e-21)
(51.6116 8.72697 -3.16017e-23)
(51.7059 8.62099 -1.45569e-22)
(51.8342 8.48278 -1.67524e-19)
(52.0075 8.30653 0)
(52.2527 8.08609 -4.0123e-20)
(52.5598 7.85788 -5.17479e-22)