/*--------------------------------*- C++ -*----------------------------------*\
  =========                 |
  \\      /  F ield         | OpenFOAM: The Open Source CFD Toolbox
   \\    /   O peration     | Website:  https://openfoam.org
    \\  /    A nd           | Version:  10
     \\/     M anipulation  |
\*---------------------------------------------------------------------------*/
FoamFile
{
    format      ascii;
    class       volScalarField;
    location    "6.4416e-05";
    object      p;
}
// * * * * * * * * * * * * * * * * * * * * * * * * * * * * * * * * * * * * * //

dimensions      [0 2 -2 0 0 0 0];

internalField   nonuniform List<scalar> 
7600
(
178.446
351.534
-222.005
-38.5282
-68.764
-60.7231
-57.9845
-60.3069
-40.0403
-63.2113
162.484
320.939
-203.498
-35.1906
-62.8435
-55.732
-53.7112
-59.4542
-39.1749
-67.1409
144.06
287.195
-183.89
-31.8374
-56.4808
-49.8358
-47.4719
-52.5347
-31.6063
-55.5788
125.397
252.228
-162.615
-28.0065
-49.5384
-43.5055
-41.2076
-45.7366
-26.3505
-46.4379
105.831
215.747
-140.043
-23.8887
-42.1449
-36.7448
-34.5353
-38.2218
-21.053
-37.1431
85.6179
178.125
-116.221
-19.4432
-34.3071
-29.5906
-27.515
-30.3104
-15.6677
-28.349
64.8797
139.576
-91.3078
-14.7071
-26.0883
-22.1199
-20.2493
-22.2117
-10.4565
-20.0694
43.7216
100.322
-65.4668
-9.71694
-17.5503
-14.3996
-12.8065
-13.9998
-5.3448
-12.0438
22.7889
60.5599
-38.9125
-4.54619
-8.77896
-6.50422
-5.24641
-5.71852
-0.294881
-4.14125
0.857268
20.1325
-11.8346
0.832161
0.221687
1.55866
2.42628
2.63369
4.74787
3.72546
276.756
525.594
-316.634
-46.846
-89.3415
-74.6703
-69.112
-61.77
-56.2883
-44.8865
273.887
521.205
-315.075
-47.3034
-89.4685
-74.9786
-69.6283
-62.3792
-57.5659
-46.2638
270.354
514.752
-311.238
-47.1751
-89.0875
-75.1217
-70.3271
-63.3782
-60.0155
-49.0336
264.485
504.332
-306.069
-47.1764
-88.6473
-75.3685
-71.3427
-64.8279
-63.6851
-53.299
256.996
490.806
-299.148
-47.0332
-87.8544
-75.4446
-72.4052
-66.4835
-68.3454
-58.9188
247.842
474.137
-290.555
-46.6829
-86.6229
-75.1877
-73.2527
-68.0158
-73.4809
-65.2552
237.169
454.545
-280.233
-46.0028
-84.7801
-74.3458
-73.4946
-68.9871
-78.2386
-71.4007
225.024
432.102
-268.246
-44.9526
-82.2091
-72.6827
-72.6403
-68.7803
-81.3331
-74.3178
211.617
407.531
-254.289
-43.2279
-78.6286
-69.837
-69.7145
-65.581
-75.1561
-62.3135
196.802
380.001
-239.062
-41.4101
-74.5679
-66.8752
-67.8892
-68.2568
-80.3045
-60.9285
-30.2475
-53.9571
-34.7682
-40.3253
-43.0011
-49.1673
-57.7528
-63.7179
-64.2857
-59.1101
-51.2933
-49.0255
-44.0038
-36.3505
-29.0582
-23.1939
-18.3982
-14.6104
-11.6558
-9.36862
-7.55956
-6.08656
-4.89448
-3.93724
-3.17399
-2.56451
-2.07587
-1.684
-1.36956
-1.11712
-0.914257
-0.751184
-0.619395
-0.512222
-0.42465
-0.352806
-0.293668
-0.244842
-0.204427
-0.170895
-0.143016
-0.119793
-0.10042
-0.0842356
-0.0706999
-0.0593632
-0.0498566
-0.0418787
-0.0351824
-0.029565
-0.0248406
-0.0208644
-0.0175113
-0.0146836
-0.0122952
-0.0102797
-0.0085731
-0.00712644
-0.00589826
-0.00486364
-0.00399072
-0.0032607
-0.00264983
-0.00214471
-0.00172307
-0.00137323
-0.00108113
-0.000846055
-0.000653917
-0.000501319
-0.000376787
-0.00028057
-0.000202675
-0.000145629
-9.99834e-05
-6.89342e-05
-4.38023e-05
-2.80395e-05
-1.46125e-05
-4.84193e-06
-30.624
-53.4957
-33.9656
-39.008
-41.336
-46.7927
-54.3529
-60.7674
-61.8579
-58.6475
-50.0358
-47.8376
-43.4074
-36.1387
-28.9162
-23.1237
-18.3473
-14.5749
-11.6327
-9.35957
-7.5593
-6.09099
-4.90077
-3.94525
-3.18296
-2.57366
-2.08447
-1.69181
-1.3765
-1.12318
-0.919497
-0.755671
-0.623157
-0.515352
-0.427238
-0.354936
-0.295414
-0.246267
-0.205588
-0.171836
-0.143778
-0.120407
-0.100913
-0.0846296
-0.0710141
-0.0596126
-0.0500536
-0.0420329
-0.035302
-0.0296561
-0.0249085
-0.0209137
-0.0175461
-0.0147067
-0.0123096
-0.0102875
-0.00857646
-0.00712658
-0.0058967
-0.00486127
-0.00398794
-0.00325765
-0.00264681
-0.00214168
-0.00172039
-0.00137026
-0.00107891
-0.000844171
-0.000652343
-0.000499948
-0.000375607
-0.000279472
-0.000201838
-0.000144739
-9.94224e-05
-6.83165e-05
-4.34539e-05
-2.77083e-05
-1.44808e-05
-4.83549e-06
-31.7482
-52.7156
-32.6845
-36.6242
-38.2872
-42.4733
-48.0402
-54.9849
-56.9657
-56.0717
-48.5658
-45.4874
-41.955
-35.6701
-28.612
-22.9758
-18.2423
-14.5017
-11.5849
-9.34082
-7.55847
-6.09961
-4.9131
-3.96128
-3.20106
-2.59217
-2.10187
-1.70759
-1.39051
-1.13543
-0.930079
-0.764715
-0.630737
-0.521655
-0.432449
-0.359224
-0.298927
-0.249135
-0.207921
-0.17373
-0.145308
-0.121639
-0.101901
-0.08542
-0.0716441
-0.0601123
-0.0504478
-0.0423412
-0.0355412
-0.0298369
-0.0250428
-0.0210106
-0.017614
-0.0147513
-0.0123368
-0.0103015
-0.00858162
-0.00712543
-0.00589259
-0.00485537
-0.00398158
-0.00325103
-0.00264069
-0.00213561
-0.00171472
-0.00136443
-0.00107443
-0.00084036
-0.000649107
-0.000497128
-0.000373272
-0.000277301
-0.000200128
-0.000143095
-9.82058e-05
-6.71581e-05
-4.27356e-05
-2.70632e-05
-1.42692e-05
-4.97148e-06
-34.3235
-51.8426
-31.5406
-33.5125
-34.3734
-36.9177
-40.0066
-46.4414
-49.528
-50.45
-47.5942
-41.4701
-39.3117
-34.7611
-28.0859
-22.7315
-18.0796
-14.3861
-11.5087
-9.31062
-7.55624
-6.11175
-4.93085
-3.98534
-3.22855
-2.62042
-2.12843
-1.73167
-1.41188
-1.15411
-0.946205
-0.778451
-0.642243
-0.531219
-0.440352
-0.365723
-0.30425
-0.253479
-0.211453
-0.176593
-0.147621
-0.1235
-0.103394
-0.0866125
-0.0725935
-0.0608649
-0.0510407
-0.0428044
-0.0358995
-0.0301074
-0.0252426
-0.0211545
-0.017714
-0.0148165
-0.0123756
-0.0103209
-0.00858759
-0.00712278
-0.00588545
-0.00484568
-0.00397104
-0.00324053
-0.00263077
-0.00212618
-0.00170581
-0.00135567
-0.00106768
-0.000834616
-0.000644209
-0.000492736
-0.000369629
-0.000273919
-0.000197476
-0.000140623
-9.63558e-05
-6.54812e-05
-4.16456e-05
-2.61597e-05
-1.39781e-05
-5.185e-06
-39.1546
-51.1727
-30.8111
-30.1125
-30.0878
-30.8867
-31.651
-35.4121
-39.9375
-42.0232
-45.918
-37.6259
-35.6229
-32.6393
-27.2449
-22.353
-17.8414
-14.2177
-11.3982
-9.2655
-7.55055
-6.12436
-4.95125
-4.0162
-3.2651
-2.65855
-2.16439
-1.76433
-1.44091
-1.17949
-0.968137
-0.797065
-0.657823
-0.544164
-0.451043
-0.374511
-0.311443
-0.259344
-0.21622
-0.180456
-0.150739
-0.126007
-0.105402
-0.0882156
-0.0738686
-0.0618747
-0.0518355
-0.0434247
-0.0363775
-0.0304667
-0.0255069
-0.021344
-0.017845
-0.0149011
-0.0124249
-0.0103445
-0.00859343
-0.0071182
-0.00587502
-0.00483197
-0.0039564
-0.00322594
-0.00261702
-0.00211316
-0.00169352
-0.00134432
-0.00105861
-0.000826862
-0.000637584
-0.000486801
-0.000364528
-0.000269418
-0.000193667
-0.000137369
-9.37083e-05
-6.33053e-05
-4.00783e-05
-2.50267e-05
-1.35667e-05
-5.3988e-06
-46.8799
-50.7833
-31.0919
-27.0312
-25.8899
-25.1165
-24.0402
-24.1395
-28.371
-31.6571
-37.1546
-34.6327
-31.1542
-28.8498
-25.2634
-21.7713
-17.484
-13.9832
-11.24
-9.19564
-7.53798
-6.13662
-4.97455
-4.05514
-3.31198
-2.70782
-2.21076
-1.80635
-1.47819
-1.21207
-0.996298
-0.820813
-0.677689
-0.560665
-0.464667
-0.385705
-0.320601
-0.266808
-0.22228
-0.185362
-0.154696
-0.129186
-0.107946
-0.0902451
-0.0754814
-0.0631509
-0.0528392
-0.0442074
-0.0369829
-0.0309217
-0.0258415
-0.0215838
-0.0180109
-0.0150078
-0.0124869
-0.0103737
-0.00859956
-0.00711148
-0.00586121
-0.00481435
-0.00393825
-0.00320791
-0.00259987
-0.00209652
-0.00167765
-0.0013309
-0.00104746
-0.000817335
-0.000629399
-0.000479316
-0.000358328
-0.000263685
-0.00018911
-0.000133212
-9.05807e-05
-6.0527e-05
-3.82443e-05
-2.35648e-05
-1.30501e-05
-5.5787e-06
-57.7532
-49.6437
-33.3195
-24.4116
-21.9621
-19.8753
-17.4461
-15.2249
-16.229
-19.5395
-24.5279
-27.3784
-24.3045
-24.1546
-20.6905
-20.1245
-16.8237
-13.6599
-11.0351
-9.09477
-7.49966
-6.11841
-4.96897
-4.08027
-3.35642
-2.76039
-2.26287
-1.85497
-1.52201
-1.25084
-1.03036
-0.849704
-0.701892
-0.580782
-0.481279
-0.39935
-0.331756
-0.275891
-0.229646
-0.191312
-0.159485
-0.133026
-0.111012
-0.092684
-0.0774134
-0.0646756
-0.0540344
-0.0451362
-0.0376814
-0.0314355
-0.0262109
-0.0218423
-0.018184
-0.0151134
-0.012542
-0.0103924
-0.0085965
-0.00709959
-0.00584112
-0.00479006
-0.0039136
-0.00318409
-0.00257764
-0.00207517
-0.00165689
-0.00131423
-0.00103323
-0.0008048
-0.000618625
-0.000469621
-0.000349988
-0.000256368
-0.000183002
-0.000128013
-8.64015e-05
-5.71085e-05
-3.5791e-05
-2.17998e-05
-1.23519e-05
-5.70559e-06
-73.9274
-51.5857
-40.8945
-24.3377
-20.3769
-16.7486
-13.3403
-9.9214
-8.18075
-9.02685
-12.9486
-15.8627
-15.7661
-17.0929
-16.6064
-17.4817
-15.4279
-12.8665
-10.6486
-8.95902
-7.48537
-6.19644
-5.02447
-4.14341
-3.43035
-2.839
-2.33515
-1.91965
-1.57896
-1.30053
-1.07249
-0.885043
-0.73144
-0.605351
-0.501586
-0.416048
-0.345427
-0.287039
-0.238703
-0.198642
-0.165397
-0.137779
-0.114819
-0.0957191
-0.0798299
-0.0665973
-0.0555553
-0.0463342
-0.038623
-0.0321705
-0.0267722
-0.0222573
-0.0184846
-0.0153149
-0.0126676
-0.0104616
-0.00862454
-0.00709743
-0.00582941
-0.00477302
-0.00389493
-0.00316404
-0.0025575
-0.00205466
-0.00163831
-0.00129955
-0.00102073
-0.000793858
-0.000609162
-0.000460849
-0.000342415
-0.000249493
-0.000177296
-0.000122877
-8.23528e-05
-5.36093e-05
-3.33376e-05
-1.99591e-05
-1.16135e-05
-5.79584e-06
-81.1635
-43.8357
-41.1422
-20.4977
-15.2783
-11.1992
-7.52343
-3.85156
-1.17673
-0.193653
-1.54503
-4.42289
-5.40581
-5.97963
-10.421
-9.08223
-10.6041
-10.2172
-9.37954
-8.28774
-7.11163
-5.9633
-4.89122
-4.07504
-3.40524
-2.8418
-2.36361
-1.95975
-1.62254
-1.3435
-1.11325
-0.922056
-0.763236
-0.632021
-0.523698
-0.434217
-0.360246
-0.299046
-0.248372
-0.206383
-0.171559
-0.142656
-0.118655
-0.0987125
-0.0821082
-0.0682835
-0.0567745
-0.0471898
-0.0391995
-0.0325328
-0.0269744
-0.022342
-0.0184853
-0.0152868
-0.0126212
-0.0104047
-0.00856211
-0.00703269
-0.00576611
-0.00471302
-0.00383806
-0.00310821
-0.00250139
-0.00199985
-0.00159147
-0.00126069
-0.000988319
-0.000766534
-0.00058652
-0.000442112
-0.000326995
-0.000236863
-0.000167028
-0.000114514
-7.57097e-05
-4.83488e-05
-2.95085e-05
-1.73155e-05
-1.03104e-05
-5.67073e-06
-90.1757
-49.6429
-57.9442
-30.8216
-20.8874
-13.6507
-7.92129
-3.5848
-0.70161
0.732597
0.568148
-1.58235
-2.40869
-3.36049
-7.74789
-6.70626
-7.19385
-7.35048
-7.71683
-7.12165
-6.31949
-5.49413
-4.69761
-3.98193
-3.36973
-2.83991
-2.39473
-2.0104
-1.68087
-1.40217
-1.16734
-0.969228
-0.803809
-0.666431
-0.552577
-0.45827
-0.380157
-0.315445
-0.261821
-0.217368
-0.1805
-0.149909
-0.124518
-0.103436
-0.0859085
-0.071331
-0.059209
-0.0491267
-0.0407345
-0.0337445
-0.0279257
-0.0230838
-0.019059
-0.0157205
-0.0129452
-0.0106336
-0.00871427
-0.00712543
-0.00581517
-0.00473042
-0.00383465
-0.00309648
-0.0024855
-0.0019819
-0.00157292
-0.00124377
-0.000973526
-0.00075323
-0.000574546
-0.000431081
-0.000317224
-0.000228106
-0.000159538
-0.000107921
-7.03085e-05
-4.38289e-05
-2.61877e-05
-1.49203e-05
-9.16956e-06
-5.50898e-06
-141.223
-8.00515
-51.1932
-25.0828
-16.2956
-8.49043
-2.90491
1.20446
3.83385
5.00377
4.82161
3.60053
2.60734
1.18638
-1.75839
-3.00217
-4.32052
-5.24933
-5.20531
-4.77606
-4.32557
-3.96338
-3.69573
-3.28716
-2.87277
-2.48104
-2.12512
-1.80573
-1.52571
-1.28347
-1.07592
-0.89953
-0.750732
-0.625847
-0.521418
-0.43427
-0.361626
-0.30111
-0.250715
-0.208754
-0.173813
-0.144715
-0.120482
-0.100295
-0.0834658
-0.0694315
-0.0577305
-0.0479729
-0.0398336
-0.0330426
-0.0273783
-0.0226562
-0.0187234
-0.0154526
-0.0127303
-0.0104642
-0.00858067
-0.00701826
-0.00572483
-0.00465385
-0.00376822
-0.00303694
-0.00243393
-0.00193752
-0.00153081
-0.00120222
-0.000934858
-0.000717559
-0.000542544
-0.000402531
-0.000292208
-0.000206262
-0.000140919
-9.22191e-05
-5.74462e-05
-3.34917e-05
-1.84221e-05
-9.56665e-06
-6.25222e-06
-4.83335e-06
-80.0547
52.2348
6.74832
26.0257
27.6842
28.8489
28.0629
26.4441
24.2901
21.6147
18.4576
15.0059
11.7665
8.68194
5.46791
3.14397
1.25264
-0.155642
-1.07191
-1.52965
-1.72165
-1.7736
-1.73138
-1.62588
-1.48282
-1.32839
-1.17483
-1.02768
-0.890662
-0.765497
-0.65352
-0.555691
-0.47104
-0.398368
-0.336364
-0.283685
-0.23906
-0.20133
-0.169473
-0.1426
-0.119944
-0.10085
-0.0847644
-0.0712115
-0.0597917
-0.0501678
-0.0420597
-0.0352288
-0.0294741
-0.0246267
-0.0205454
-0.0171118
-0.0142264
-0.0118047
-0.00977263
-0.00806818
-0.00664088
-0.00544819
-0.00445353
-0.00362491
-0.00293561
-0.00236348
-0.0018891
-0.00149691
-0.00117432
-0.000910033
-0.000695116
-0.000521078
-0.000381667
-0.000271216
-0.000185206
-0.000119544
-7.09468e-05
-3.63839e-05
-1.34159e-05
3.12381e-07
6.6035e-06
7.54489e-06
3.80182e-06
-1.47923e-06
-83.2444
34.437
-8.95683
6.10571
8.27031
11.296
12.81
13.4312
13.2761
12.4553
11.0611
9.2809
7.36869
5.38848
3.37151
1.70978
0.369123
-0.634003
-1.28186
-1.6277
-1.77369
-1.80346
-1.75804
-1.65278
-1.51169
-1.35696
-1.20121
-1.05135
-0.911669
-0.784415
-0.670626
-0.570529
-0.483547
-0.408634
-0.344558
-0.290032
-0.243808
-0.204735
-0.171775
-0.144017
-0.120666
-0.101041
-0.0845589
-0.0707209
-0.0591065
-0.0493602
-0.0411841
-0.0343267
-0.0285767
-0.0237564
-0.0197176
-0.016336
-0.0135071
-0.0111431
-0.00916895
-0.00752161
-0.00614897
-0.00500729
-0.00405949
-0.00327395
-0.00262412
-0.00208783
-0.00164626
-0.001284
-0.000988579
-0.000749082
-0.000556105
-0.000401541
-0.000279232
-0.000183842
-0.000111039
-5.70298e-05
-1.87018e-05
6.72666e-06
2.15592e-05
2.79052e-05
2.74902e-05
2.21472e-05
1.26269e-05
1.74143e-06
-58.5653
34.481
1.56836
12.0055
12.8208
14.5248
15.1512
15.1242
14.52
13.4357
11.9553
10.2112
8.35137
6.47013
4.64614
3.05271
1.73411
0.703431
-0.0400144
-0.52989
-0.827465
-0.992039
-1.06241
-1.06526
-1.02142
-0.950343
-0.865186
-0.774576
-0.684298
-0.598049
-0.518108
-0.445741
-0.381379
-0.324888
-0.275807
-0.233492
-0.197228
-0.166293
-0.139996
-0.117704
-0.098849
-0.0829275
-0.0695012
-0.0581905
-0.0486698
-0.040661
-0.0339282
-0.0282711
-0.0235205
-0.0195334
-0.0161895
-0.0133874
-0.011042
-0.00908105
-0.00744337
-0.00607732
-0.00493976
-0.00399436
-0.00321041
-0.00256181
-0.00202657
-0.00158624
-0.00122523
-0.000930638
-0.000691829
-0.000499611
-0.000346399
-0.000225531
-0.000131759
-6.06103e-05
-8.41655e-06
2.79922e-05
5.12443e-05
6.36588e-05
6.71802e-05
6.3561e-05
5.42597e-05
4.08123e-05
2.38835e-05
5.86412e-06
-39.7507
28.4796
4.46786
11.7125
12.1501
13.3924
13.877
13.8498
13.3432
12.4344
11.199
9.73841
8.15821
6.54886
4.99301
3.59145
2.39851
1.43316
0.69618
0.165653
-0.196696
-0.43192
-0.572065
-0.641891
-0.660773
-0.645741
-0.609423
-0.560832
-0.506348
-0.450364
-0.395822
-0.34459
-0.297716
-0.25565
-0.218446
-0.185908
-0.157694
-0.133396
-0.112581
-0.0948239
-0.0797272
-0.0669266
-0.0560966
-0.0469496
-0.0392351
-0.0327366
-0.0272681
-0.0226708
-0.0188094
-0.015569
-0.0128526
-0.0105781
-0.00867606
-0.00708788
-0.00576376
-0.00466168
-0.00374633
-0.00298793
-0.00236133
-0.00184522
-0.00142165
-0.00107548
-0.000794006
-0.000566647
-0.000384619
-0.000240416
-0.00012782
-4.14646e-05
2.29647e-05
6.90995e-05
9.99361e-05
0.000118033
0.000125527
0.000124283
0.000115878
0.000101713
8.29697e-05
6.08864e-05
3.60283e-05
1.03263e-05
-24.4064
24.3203
7.27035
12.2335
12.3859
13.1696
13.4248
13.2936
12.7829
11.9476
10.8491
9.56494
8.17567
6.75856
5.38521
4.12519
3.02599
2.1085
1.37618
0.815848
0.402838
0.108401
-0.0930187
-0.223027
-0.299127
-0.336387
-0.34664
-0.338843
-0.319655
-0.293921
-0.26509
-0.235547
-0.206859
-0.179977
-0.155416
-0.133387
-0.113903
-0.0968559
-0.0820654
-0.0693185
-0.0583912
-0.0490642
-0.0411309
-0.0344022
-0.028709
-0.0239013
-0.0198487
-0.0164379
-0.0135715
-0.0111662
-0.00915082
-0.00746502
-0.00605751
-0.00488473
-0.00390969
-0.00310108
-0.00243245
-0.00188148
-0.00142929
-0.00105988
-0.000759764
-0.000517559
-0.000323715
-0.000170256
-5.05394e-05
4.10675e-05
0.000109229
0.000157925
0.000190393
0.000209336
0.000216988
0.000215239
0.000205675
0.000189666
0.00016838
0.000142842
0.000113923
8.2542e-05
4.91369e-05
1.514e-05
-13.0026
21.1682
9.05123
12.4314
12.4222
12.8848
12.9747
12.7717
12.269
11.5035
10.523
9.38747
8.16061
6.90609
5.68333
4.54549
3.532
2.66347
1.94584
1.37218
0.926686
0.589211
0.339969
0.161035
0.0371224
-0.0450009
-0.0961598
-0.12492
-0.137917
-0.140187
-0.13549
-0.126575
-0.115399
-0.103309
-0.0911925
-0.0796057
-0.0688688
-0.0591399
-0.0504694
-0.0428395
-0.0361912
-0.0304434
-0.0255054
-0.0212847
-0.0176925
-0.0146462
-0.0120709
-0.00989973
-0.00807414
-0.00654299
-0.00526213
-0.0041936
-0.0033049
-0.00256824
-0.00195988
-0.00145963
-0.00105036
-0.000717532
-0.000448838
-0.000233829
-6.36706e-05
6.90867e-05
0.000170701
0.000246401
0.00030054
0.000336788
0.000358176
0.000367264
0.000366135
0.000356515
0.00033982
0.000317242
0.000289776
0.000258279
0.000223481
0.000186015
0.000146423
0.000105289
6.29093e-05
2.0197e-05
-4.73277
19.0103
10.2946
12.5565
12.4343
12.6592
12.6186
12.3556
11.8569
11.1461
10.2595
9.24333
8.14858
7.02694
5.92706
4.89149
3.95286
3.13044
2.43175
1.85421
1.38797
1.01903
0.732381
0.513531
0.349492
0.228781
0.141672
0.0801812
0.0379007
0.00978283
-0.00808508
-0.0186894
-0.0242713
-0.0264807
-0.026509
-0.0251996
-0.0231361
-0.0207127
-0.0181872
-0.0157212
-0.0134098
-0.0113034
-0.00942221
-0.00776787
-0.00633045
-0.00509369
-0.00403835
-0.00314432
-0.002392
-0.00176302
-0.00124063
-0.000809841
-0.000457416
-0.000171735
5.73254e-05
0.000238532
0.000379422
0.000486465
0.000565197
0.00062035
0.000655949
0.000675397
0.00068155
0.000676787
0.000663077
0.00064206
0.00061507
0.000583215
0.000547377
0.000508265
0.000466444
0.00042238
0.000376453
0.000328991
0.000280266
0.000230511
0.000179922
0.00012874
7.71098e-05
2.54109e-05
1.15648
17.5439
11.1651
12.6238
12.4144
12.4628
12.3217
12.0115
11.516
10.8496
10.0391
9.12043
8.13414
7.1221
6.12408
5.17486
4.30175
3.52229
2.84486
2.26978
1.79135
1.40002
1.08461
0.833636
0.636302
0.482771
0.364437
0.274003
0.205418
0.153761
0.115088
0.0862832
0.064913
0.0491024
0.0374222
0.0287945
0.0224129
0.017679
0.0141517
0.0115069
0.00950814
0.00798299
0.00680613
0.00588655
0.00515811
0.00457266
0.00409504
0.00369947
0.00336691
0.00308321
0.00283775
0.00262254
0.00243148
0.00225992
0.00210428
0.00196181
0.00183036
0.00170824
0.00159413
0.00148698
0.00138595
0.00129035
0.00119958
0.00111314
0.00103056
0.000951418
0.000875333
0.000801945
0.000730909
0.000661903
0.000594623
0.000528796
0.000464177
0.000400552
0.000337731
0.00027554
0.000213823
0.000152474
9.14823e-05
3.06881e-05
5.31032
16.5375
11.7869
12.6614
12.3798
12.2941
12.0745
11.7268
11.2338
10.6032
9.85456
9.01547
8.11824
7.19675
6.28353
5.40736
4.59131
3.85121
3.19571
2.62705
2.14245
1.73562
1.39838
1.12181
0.897081
0.715868
0.570659
0.454879
0.362914
0.290058
0.232429
0.186866
0.150818
0.122252
0.0995573
0.0814688
0.0669955
0.0553647
0.0459751
0.0383587
0.0321511
0.0270677
0.0228861
0.0194311
0.0165648
0.0141775
0.0121818
0.0105076
0.00909824
0.00790792
0.00689919
0.00604145
0.00530955
0.00468278
0.00414403
0.00367912
0.00327631
0.0029258
0.00261948
0.00235053
0.00211328
0.00190298
0.00171559
0.00154771
0.00139648
0.0012594
0.00113439
0.00101961
0.000913517
0.000814742
0.000722117
0.000634632
0.000551414
0.000471712
0.000394872
0.000320313
0.000247533
0.000176075
0.000105775
3.59358e-05
8.22606
15.8259
12.2341
12.6817
12.3394
12.1503
11.8688
11.491
10.9997
10.398
9.69948
8.92541
8.10137
7.25476
6.41229
5.59794
4.83137
4.1268
3.49284
2.93293
2.44632
2.02915
1.67559
1.37883
1.13175
0.927393
0.759263
0.621508
0.50898
0.417249
0.342557
0.281758
0.232249
0.191889
0.158938
0.131981
0.109877
0.0917091
0.0767371
0.064367
0.0541206
0.0456123
0.0385305
0.0326228
0.0276842
0.0235475
0.0200757
0.0171568
0.0146982
0.0126237
0.0108701
0.00938491
0.00812463
0.00705296
0.00613963
0.00535939
0.00469112
0.00411717
0.00362274
0.00319545
0.00282488
0.0025023
0.00222033
0.00197276
0.00175432
0.00156055
0.00138764
0.00123238
0.00109198
0.00096409
0.000846683
0.000738026
0.000636631
0.000541219
0.00045068
0.000364042
0.000280454
0.000199125
0.000119733
4.10608e-05
10.2665
15.3031
12.5551
12.691
12.2989
12.0292
11.6982
11.2961
10.8059
10.2272
9.56928
8.8482
8.0842
7.29943
6.51592
5.75377
5.02987
4.35695
3.74338
3.19335
2.70752
2.28382
1.91826
1.60574
1.34058
1.11703
0.92954
0.772924
0.642513
0.534175
0.444314
0.36985
0.308166
0.257063
0.214704
0.179566
0.150386
0.126125
0.105929
0.0890936
0.0750409
0.0632955
0.0534659
0.0452293
0.0383194
0.0325158
0.0276358
0.0235279
0.0200662
0.0171457
0.0146788
0.0125926
0.0108259
0.00932764
0.00805505
0.00697227
0.00604928
0.00526086
0.00458586
0.00400654
0.00350796
0.00307757
0.00270478
0.00238068
0.00209771
0.00184949
0.00163061
0.00143647
0.00126315
0.00110732
0.000966129
0.000837163
0.00071833
0.000607853
0.000504177
0.000405958
0.00031201
0.00022122
0.000133112
4.59729e-05
11.6939
14.9055
12.7827
12.6925
12.261
11.9285
11.558
11.1361
10.6461
10.0857
9.46042
8.78234
8.06738
7.33351
6.59894
5.88064
5.1932
4.54808
3.95327
3.41339
2.93009
2.5026
2.12838
1.80366
1.52403
1.28474
1.08105
0.908434
0.762659
0.639898
0.536741
0.450198
0.377673
0.316939
0.266097
0.22354
0.187913
0.158079
0.133084
0.112134
0.0945629
0.0798176
0.0674357
0.0570318
0.0482841
0.0409243
0.034728
0.0295076
0.0251064
0.0213929
0.0182571
0.0156068
0.0133647
0.0114658
0.00985573
0.00848868
0.00732626
0.00633623
0.00549148
0.00476921
0.00415025
0.00361846
0.00316027
0.00276418
0.00242052
0.00212109
0.00185897
0.00162827
0.00142399
0.00124189
0.00107835
0.000930288
0.000795073
0.000670434
0.000554423
0.000445321
0.000341648
0.000241967
0.000145677
5.05866e-05
12.6891
14.5951
12.9413
12.6885
12.227
11.8458
11.444
11.0058
10.5157
9.96942
9.37018
8.72671
8.05153
7.35923
6.66497
5.98316
5.32655
4.70544
4.12742
3.59734
3.11752
2.68817
2.30781
1.97379
1.68269
1.43062
1.21357
1.02755
0.868769
0.733676
0.619053
0.522014
0.440007
0.370798
0.312453
0.263302
0.22192
0.187091
0.157782
0.13312
0.112368
0.0949041
0.0802043
0.0678284
0.0574062
0.0486265
0.0412277
0.0349902
0.0297292
0.0252896
0.0215409
0.0183736
0.0156955
0.0134291
0.0115093
0.00988129
0.00849908
0.00732393
0.00632328
0.00546971
0.00474019
0.00411527
0.00357861
0.00311639
0.00271698
0.00237051
0.00206866
0.00180437
0.00157166
0.00136542
0.00118136
0.00101576
0.000865506
0.000727866
0.000600531
0.000481442
0.000368843
0.000261003
0.000157204
5.48175e-05
13.3807
14.35
13.0492
12.6807
12.1973
11.7791
11.3525
10.9011
10.4105
9.87516
9.2964
8.68046
8.03716
7.3784
6.7169
6.06506
5.43406
4.83327
4.26988
3.7488
3.27283
2.84287
2.45828
2.11726
1.81719
1.55491
1.327
1.12996
0.960364
0.814928
0.690616
0.58465
0.49453
0.418033
0.353202
0.29833
0.251936
0.212741
0.179651
0.151727
0.128173
0.108309
0.0915593
0.077437
0.0655297
0.0554893
0.0470218
0.0398794
0.0338531
0.0287667
0.0244718
0.0208435
0.0177765
0.0151822
0.012986
0.0111251
0.00954661
0.00820617
0.00706628
0.00609546
0.00526716
0.00455905
0.00395229
0.003431
0.00298177
0.00259328
0.00225593
0.00196164
0.00170351
0.00147573
0.00127332
0.00109208
0.000928375
0.00077914
0.000641681
0.000513691
0.000393111
0.000277996
0.000167491
5.85916e-05
13.8582
14.1577
13.1205
12.671
12.1723
11.7264
11.2807
10.8188
10.3274
9.80032
9.23737
8.64291
8.02466
7.39244
6.75705
6.12928
5.51908
4.93502
4.38393
3.87074
3.39853
2.96872
2.5813
2.23511
1.92816
1.65789
1.42135
1.21546
1.03709
0.883209
0.75093
0.637581
0.540717
0.458134
0.387867
0.328182
0.277557
0.234668
0.198369
0.167672
0.141729
0.119817
0.101315
0.0856973
0.0725172
0.0613952
0.05201
0.0440901
0.0374056
0.0317628
0.0269978
0.0229725
0.0195706
0.0166937
0.0142593
0.0121976
0.01045
0.00896705
0.00770711
0.00663517
0.00572169
0.00494183
0.00427461
0.00370236
0.00321016
0.00278541
0.00241745
0.00209727
0.00181723
0.00157085
0.00135263
0.00115787
0.000982585
0.000823338
0.000677164
0.000541486
0.000414036
0.000292641
0.000176362
6.18446e-05
14.1791
14.0096
13.1659
12.6611
12.1522
11.6861
11.2261
10.7562
10.2639
9.74282
9.19171
8.61351
8.01435
7.40247
6.7872
6.1781
5.58418
5.01338
4.47219
3.96554
3.49668
3.06741
2.67814
2.32824
2.01618
1.73985
1.49669
1.28393
1.09871
0.938182
0.799604
0.68039
0.578146
0.490691
0.416057
0.352494
0.298451
0.25257
0.213667
0.180715
0.152829
0.129245
0.109313
0.0924731
0.0782515
0.0662438
0.0561066
0.0475491
0.0403248
0.0342252
0.0290741
0.0247228
0.0210457
0.0179366
0.0153065
0.0130797
0.011193
0.00959289
0.00823424
0.00707912
0.0060956
0.00525671
0.00453977
0.0039256
0.00339805
0.00294347
0.00255033
0.00220884
0.00191077
0.00164909
0.00141786
0.00121198
0.00102717
0.000859681
0.000706348
0.000564339
0.000431241
0.000304686
0.000183659
6.45196e-05
14.3979
13.905
13.1947
12.6529
12.1373
11.6571
11.1868
10.711
10.218
9.70108
9.15838
8.59184
8.00645
7.40931
6.80871
6.21329
5.63136
5.07041
4.53669
4.03505
3.5689
3.14026
2.74986
2.39741
2.08174
1.80105
1.55308
1.33531
1.14505
0.979605
0.836348
0.712761
0.606493
0.515382
0.437464
0.370977
0.314352
0.266207
0.22533
0.190667
0.161302
0.136447
0.115425
0.0976534
0.0826373
0.0699533
0.0592416
0.0501968
0.0425596
0.0361106
0.0306642
0.0260634
0.0221756
0.0188888
0.0161087
0.0137556
0.0117624
0.0100724
0.00863815
0.00741934
0.00638214
0.00549804
0.00474298
0.00409669
0.00354205
0.00306461
0.00265215
0.00229435
0.00198246
0.00170905
0.00146783
0.00125345
0.00106133
0.000887538
0.000728701
0.000581855
0.000444421
0.000313921
0.000189257
6.65704e-05
14.4984
13.8285
13.21
12.647
12.1275
11.6384
11.1615
10.6818
10.1882
9.6739
9.13659
8.57757
8.0011
7.41356
6.82253
6.23607
5.66205
5.10763
4.57889
4.08065
3.61639
3.18827
2.79723
2.44319
2.12522
1.84172
1.59063
1.36956
1.17599
1.00731
0.860954
0.734465
0.62552
0.531972
0.45186
0.383417
0.325062
0.275398
0.233196
0.197382
0.167022
0.141311
0.119554
0.101154
0.0856019
0.0724613
0.0613616
0.0519875
0.0440714
0.0373862
0.0317401
0.0269705
0.0229402
0.0195332
0.0166517
0.014213
0.0121477
0.0103971
0.00891162
0.00764969
0.00657616
0.00566146
0.0048806
0.00421257
0.00363959
0.00314667
0.00272114
0.00235228
0.00203102
0.00174967
0.00150169
0.00128154
0.00108446
0.000906403
0.000743844
0.000593713
0.00045335
0.000320185
0.000193056
6.79605e-05
14.5946
13.8161
13.2241
12.6461
12.1232
11.6294
11.1491
10.6675
10.1735
9.6605
9.12582
8.57049
7.99841
7.41559
6.82928
6.24726
5.67716
5.12599
4.59975
4.10323
3.63994
3.21211
2.82078
2.46599
2.14689
1.86201
1.60938
1.38669
1.19148
1.02118
0.873289
0.745353
0.635072
0.540305
0.459096
0.389672
0.33045
0.280024
0.237156
0.200763
0.169904
0.143762
0.121635
0.102919
0.0870964
0.0737259
0.0624307
0.0528907
0.0448339
0.0380297
0.0322829
0.0274282
0.023326
0.0198583
0.0169257
0.0144439
0.0123423
0.010561
0.0090497
0.00776602
0.00667417
0.00574402
0.00495016
0.00427115
0.00368891
0.00318817
0.00275603
0.00238158
0.00205558
0.00177021
0.00151882
0.00129574
0.00109617
0.000915944
0.000751501
0.000599708
0.000457872
0.000323366
0.000194989
6.86661e-05
1.465
-12.1653
-25.2769
-37.576
-48.6257
-59.1902
-66.0918
-78.5776
-73.0401
-109.926
8.93494
8.5255
7.51064
5.52899
2.55969
-2.93686
-6.32558
-20.1447
-1.08232
-23.0158
7.63065
3.09551
-1.25304
-5.31312
-8.95318
-12.5907
-14.4636
-22.8489
-8.49358
-22.5992
10.0851
9.18315
8.13392
6.83573
5.3798
3.17366
2.72199
-3.92616
4.73949
-5.97231
10.6996
9.9445
9.19262
8.43114
7.69136
6.6336
6.66068
2.88222
9.08835
1.8795
11.4503
11.3552
11.2061
10.9712
10.7276
10.1763
10.2876
7.71937
11.9473
7.00395
11.9431
12.1336
12.2905
12.3958
12.4607
12.3314
12.4863
10.8235
13.7718
10.3243
12.3335
12.7171
13.07
13.3692
13.59
13.6829
13.8689
12.7967
14.8978
12.4794
12.6209
13.1022
13.5547
13.9541
14.2831
14.4771
14.7078
14.0287
15.5448
13.836
12.8286
13.347
13.8356
14.2762
14.652
14.9131
15.1761
14.7575
15.8645
14.6496
12.9865
13.5095
14.0067
14.4587
14.8489
15.1392
15.4085
15.1682
15.9789
15.1081
13.1117
13.6222
14.1083
14.5519
14.9372
15.2346
15.4931
15.3726
15.9624
15.335
13.2126
13.7011
14.1668
14.5933
14.9661
15.2605
15.5055
15.4606
15.885
15.4258
13.2939
13.7568
14.199
14.6054
14.9609
15.2435
15.4698
15.4738
15.7704
15.4286
13.3576
13.7951
14.213
14.5965
14.9308
15.1983
15.4064
15.4423
15.646
15.3906
13.4069
13.822
14.2184
14.5814
14.8971
15.1502
15.3416
15.397
15.5308
15.336
13.4424
13.8371
14.2131
14.5561
14.8535
15.0922
15.2691
15.3377
15.4236
15.2732
13.4715
13.8622
14.2335
14.5717
14.8639
15.0972
15.264
15.3355
15.3772
15.245
13.4718
13.824
14.1608
14.4703
14.7411
14.962
15.1247
15.2104
15.246
15.1527
13.5
13.889
14.2579
14.5926
14.8795
15.1058
15.2615
15.3336
15.3324
15.2148
77.5472
55.4417
75.2702
73.0701
75.7364
83.6316
52.7502
235.296
-339.191
-173.914
81.7418
54.2239
74.2228
68.3715
70.092
76.7732
48.1676
215.113
-310.86
-161.363
70.8705
46.7486
67.2384
61.7803
63.5943
69.5287
43.6332
193.907
-279.291
-146.223
62.0079
41.4615
60.2778
55.1525
56.6936
61.7662
38.7062
171.145
-246.35
-130.628
52.7904
36.0713
52.5685
48.1283
49.4071
53.6285
33.5968
147.228
-211.71
-113.857
43.9608
30.5714
44.4552
40.7837
41.7861
45.1392
28.2867
122.234
-175.694
-96.0975
35.5907
25.2319
36.166
33.2358
33.9214
36.3774
22.8326
96.349
-138.478
-77.4163
27.4687
20.0042
27.7944
25.5675
25.893
27.4187
17.2882
69.7596
-100.252
-57.8674
19.4901
14.8676
19.3986
17.8504
17.7862
18.361
11.7409
42.6978
-61.1832
-38.0781
11.5829
9.77901
10.987
10.0974
9.6163
9.21621
6.17391
15.3689
-21.0937
-16.792
69.5116
79.6023
84.8078
91.9992
97.7488
113.053
71.1558
342.426
-497.017
-248.653
70.2251
80.424
85.0393
92.2013
97.7828
112.919
71.3416
340.561
-493.011
-246.331
71.7152
82.0002
85.3133
92.2948
97.3955
112.032
70.6901
336.121
-487.315
-243.873
74.2054
84.4578
85.7487
92.4579
96.8897
110.871
69.9754
330.078
-478.003
-239.592
77.6725
87.6603
86.1775
92.4817
96.0367
109.169
68.8651
322.03
-465.905
-234.157
81.6372
91.2119
86.3687
92.184
94.7367
106.894
67.3909
312.101
-450.943
-227.46
85.3134
94.3795
85.9931
91.2675
92.8087
103.93
65.4731
300.277
-433.285
-219.585
86.2888
96.1427
84.6303
89.3715
90.0989
100.217
63.1174
286.67
-412.948
-210.501
73.887
89.4474
80.6533
85.6253
86.3043
95.5207
60.0594
271.019
-390.607
-200.339
72.0307
93.9725
82.7103
83.1355
82.5075
90.4002
56.9169
254.065
-365.368
-188.866
29.2545
29.4005
29.7255
30.2293
30.9539
31.9347
33.1824
34.8826
37.3589
41.0314
46.4521
53.9949
64.0699
76.4067
79.4948
81.9241
70.7226
62.018
75.9349
56.7995
29.2378
29.3826
29.7068
30.209
30.9317
31.9116
33.1654
34.8692
37.3388
40.9878
46.3718