/*--------------------------------*- C++ -*----------------------------------*\
  =========                 |
  \\      /  F ield         | OpenFOAM: The Open Source CFD Toolbox
   \\    /   O peration     | Website:  https://openfoam.org
    \\  /    A nd           | Version:  10
     \\/     M anipulation  |
\*---------------------------------------------------------------------------*/
FoamFile
{
    format      ascii;
    class       surfaceScalarField;
    location    "6.4416e-05";
    object      phi;
}
// * * * * * * * * * * * * * * * * * * * * * * * * * * * * * * * * * * * * * //

dimensions      [0 3 -1 0 0 0 0];

internalField   nonuniform List<scalar> 
14980
(
0.0365135
-0.515352
0.478838
0.066581
-0.430608
0.400541
0.0943228
-0.396939
0.369197
0.120118
-0.369646
0.343851
0.144578
-0.35123
0.326769
0.167989
-0.337759
0.314348
0.190422
-0.327765
0.305333
0.211894
-0.32013
0.298657
0.231041
-0.314691
0.295544
-0.309215
0.289389
0.250867
0.0332651
-0.548617
0.0607103
-0.458054
0.0859989
-0.422227
0.109485
-0.393132
0.131732
-0.373476
0.153011
-0.359039
0.173454
-0.348208
0.193144
-0.33982
0.211487
-0.333034
-0.327438
0.229709
0.0298358
-0.578453
0.0544707
-0.482689
0.0771561
-0.444913
0.0982081
-0.414184
0.118139
-0.393407
0.137205
-0.378105
0.155566
-0.366569
0.173352
-0.357607
0.19059
-0.350272
-0.344606
0.207759
0.0262459
-0.604699
0.0479184
-0.504361
0.067863
-0.464857
0.0863644
-0.432685
0.103881
-0.410924
0.120655
-0.394879
0.136852
-0.382765
0.152612
-0.373368
0.168027
-0.365687
-0.359987
0.183409
0.0225167
-0.627215
0.0410899
-0.522934
0.0581741
-0.481942
0.0740181
-0.448529
0.089024
-0.42593
0.103409
-0.409264
0.117331
-0.396687
0.130921
-0.386957
0.14428
-0.379046
-0.373299
0.157592
0.018671
-0.645886
0.0340276
-0.538291
0.048147
-0.496061
0.0612378
-0.46162
0.0736408
-0.438333
0.085542
-0.421165
0.0970778
-0.408223
0.108358
-0.398237
0.119462
-0.390151
-0.384344
0.130507
0.014734
-0.66062
0.026775
-0.550332
0.0378409
-0.507127
0.0480957
-0.471875
0.0578151
-0.448052
0.0671482
-0.430498
0.0762041
-0.417279
0.0850667
-0.4071
0.093795
-0.398879
-0.393011
0.102463
0.0107319
-0.671352
0.0193781
-0.558978
0.0273169
-0.515066
0.0346681
-0.479226
0.0416377
-0.455022
0.0483345
-0.437195
0.0548369
-0.423781
0.0612038
-0.413467
0.0674738
-0.405149
-0.39923
0.0736931
0.00669888
-0.678051
0.0118869
-0.564166
0.0166378
-0.519817
0.0210341
-0.483622
0.0252049
-0.459192
0.0292155
-0.441206
0.0331126
-0.427678
0.0369305
-0.417285
0.0406907
-0.40891
-0.402958
0.0444185
0.00265677
-0.680708
0.00434231
-0.565852
0.0058657
-0.52134
0.00727513
-0.485032
0.00861665
-0.460534
0.0099108
-0.4425
0.0111719
-0.428939
0.0124102
-0.418523
0.0136319
-0.410131
0.0148442
-0.404171
0.0533493
-0.0533493
7.27586e-10
0.0978695
-0.0445202
4.53064e-10
0.138782
-0.0409128
4.02946e-10
0.176865
-0.0380832
3.1859e-10
0.213021
-0.0361554
3.337e-10
0.247755
-0.0347343
3.00429e-10
0.281414
-0.0336592
2.35105e-10
0.314246
-0.032832
1.41465e-10
0.346395
-0.0321487
-1.64774e-12
-0.0317116
0.378107
-8.66434e-11
0.0529897
-0.106339
0.0971937
-0.0887242
0.137871
-0.0815899
0.175733
-0.0759451
0.21168
-0.0721026
0.246214
-0.0692682
0.279677
-0.0671228
0.312315
-0.0654699
0.34427
-0.064103
-0.0632264
0.375784
0.0522961
-0.158635
0.0959408
-0.132369
0.136127
-0.121776
0.173533
-0.113352
0.209052
-0.107622
0.243177
-0.103393
0.276243
-0.100188
0.308487
-0.0977147
0.340048
-0.0956634
-0.0943402
0.371162
0.0512843
-0.209919
0.0940997
-0.175184
0.133544
-0.16122
0.170267
-0.150075
0.205144
-0.142499
0.238656
-0.136905
0.271129
-0.132661
0.30279
-0.129375
0.333766
-0.126639
-0.124852
0.364277
0.0499526
-0.259872
0.0916789
-0.216911
0.130138
-0.199679
0.165953
-0.185891
0.199979
-0.176524
0.232681
-0.169607
0.264375
-0.164356
0.295273
-0.160273
0.325489
-0.156855
-0.154565
0.355202
0.0483054
-0.308177
0.0886873
-0.257292
0.125923
-0.236915
0.160612
-0.22058
0.19358
-0.209492
0.225282
-0.201309
0.256024
-0.195098
0.285999
-0.190247
0.315314
-0.18617
-0.183304
0.344053
0.046348
-0.354525
0.0851372
-0.296082
0.120921
-0.272699
0.154269
-0.253927
0.185979
-0.241203
0.216496
-0.231826
0.246125
-0.224727
0.275044
-0.219166
0.303388
-0.214514
-0.210911
0.330994
0.0440879
-0.398613
0.0810439
-0.333038
0.115155
-0.30681
0.146952
-0.285724
0.177204
-0.271455
0.206349
-0.260971
0.234707
-0.253084
0.262448
-0.246907
0.289835
-0.2419
-0.237369
0.316293
0.0415277
-0.440141
0.0764259
-0.367936
0.108657
-0.339041
0.138698
-0.315765
0.167289
-0.300045
0.194863
-0.288545
0.221775
-0.279996
0.248252
-0.273384
0.275
-0.268648
-0.263395
0.301026
0.0386976
0.0713026
0.101458
0.129544
0.156269
0.182071
0.207408
0.232681
0.259577
0.285571
0.394454
-0.0163469
-1.61866e-09
0.403011
-0.00855712
-7.93254e-10
0.408166
-0.00515507
-1.00368e-09
0.411319
-0.00315331
-6.0625e-10
0.413311
-0.00199181
-1.90645e-10
0.414572
-0.00126091
2.79897e-10
0.415359
-0.000787496
1.49596e-10
0.415815
-0.000455354
-1.09201e-10
0.416033
-0.000218225
-1.81336e-10
0.41607
-3.69637e-05
3.15231e-11
0.415982
8.73448e-05
-2.6264e-10
0.415808
0.00017465
-1.89712e-10
0.415571
0.000236661
-1.40798e-10
0.415283
0.000288264
-1.49317e-10
0.414947
0.000335558
-1.66058e-10
0.414576
0.000371811
-1.23953e-10
0.414176
0.000399452
-3.42899e-11
0.413755
0.00042122
2.75866e-11
0.413316
0.000439089
-1.63463e-12
0.412862
0.000453598
-1.89301e-11
0.412397
0.000465281
-4.69318e-11
0.411922
0.000474806
9.60967e-12
0.411439
0.000482856
-2.55528e-11
0.41095
0.000489432
8.40908e-12
0.410455
0.000494879
-2.68404e-11
0.409955
0.000499425
1.53183e-11
0.409452
0.00050321
-2.03821e-11
0.408946
0.000506374
2.12397e-11
0.408437
0.000509021
-1.04121e-11
0.407926
0.000511239
3.17128e-11
0.407413
0.000513101
1.94155e-13
0.406898
0.000514671
3.54218e-11
0.406382
0.000515992
8.80988e-12
0.405865
0.000517101
3.66645e-11
0.405347
0.000518034
1.52184e-11
0.404828
0.00051882
4.22648e-11
0.404308
0.000519481
2.06704e-11
0.403788
0.000520038
4.71673e-11
0.403268
0.000520507
2.75044e-11
0.402747
0.000520902
5.32843e-11
0.402226
0.000521235
2.96047e-11
0.401704
0.000521516
5.10076e-11
0.401182
0.000521752
3.01689e-11
0.400661
0.000521951
5.07914e-11
0.400138
0.000522119
2.53981e-11
0.399616
0.00052226
4.26123e-11
0.399094
0.000522379
1.54793e-11
0.398571
0.00052248
3.04159e-11
0.398049
0.000522565
2.37219e-11
0.397526
0.000522636
4.28878e-11
0.397003
0.000522696
2.39011e-11
0.396481
0.000522747
4.22191e-11
0.395958
0.00052279
2.56207e-11
0.395435
0.000522826
4.50187e-11
0.394912
0.000522856
3.11604e-11
0.394389
0.000522882
5.16812e-11
0.393866
0.000522903
3.65496e-11
0.393343
0.000522921
2.27107e-11
0.392821
0.000522936
7.43382e-12
0.392298
0.000522949
2.39866e-11
0.391775
0.00052296
-4.42627e-11
0.391252
0.00052297
-3.27776e-11
0.390729
0.000522978
-4.85674e-11
0.390206
0.000522984
-2.55175e-11
0.389683
0.000522989
1.29926e-11
0.38916
0.000522994
2.16429e-11
0.388637
0.000522998
3.50903e-11
0.388114
0.000523001
2.20147e-11
0.387591
0.000523004
1.22377e-11
0.387068
0.000523007
1.63515e-11
0.386545
0.000523008
3.10893e-12
0.386022
0.00052301
1.67841e-11
0.385499
0.000523012
-2.09687e-13
0.384976
0.000523013
1.75815e-11
0.384453
0.000523014
-1.40536e-12
0.38393
0.000523015
1.58477e-11
0.383407
0.000523016
-3.17325e-12
0.382884
0.000523017
1.22072e-11
0.382361
0.000523017
-5.02622e-12
0.000523018
8.9881e-12
0.391893
-0.0324558
0.400447
-0.0171109
0.40562
-0.010328
0.408811
-0.00634382
0.410842
-0.0040228
0.412139
-0.00255819
0.412961
-0.00160971
0.413452
-0.000946024
0.413705
-0.000471981
0.41378
-0.000111659
0.413726
0.000141319
0.413585
0.000316256
0.413379
0.000441758
0.413124
0.000543384
0.412822
0.000637545
0.412484
0.000710304
0.412118
0.000765808
0.411729
0.000809489
0.411323
0.000845299
0.410902
0.000874364
0.41047
0.000897751
0.410028
0.000916826
0.409578
0.000932958
0.409121
0.000946131
0.408659
0.00095704
0.408192
0.000966146
0.407722
0.000973726
0.407248
0.000980063
0.406772
0.000985363
0.406293
0.000989805
0.405813
0.000993533
0.405331
0.000996677
0.404847
0.000999321
0.404363
0.00100154
0.403877
0.00100341
0.403391
0.00100498
0.402904
0.00100631
0.402417
0.00100742
0.401929
0.00100836
0.401441
0.00100915
0.400952
0.00100982
0.400463
0.00101038
0.399974
0.00101085
0.399485
0.00101125
0.398996
0.00101159
0.398506
0.00101187
0.398016
0.00101211
0.397526
0.00101231
0.397037
0.00101248
0.396547
0.00101262
0.396057
0.00101274
0.395566
0.00101284
0.395076
0.00101293
0.394586
0.001013
0.394096
0.00101306
0.393606
0.00101311
0.393115
0.00101315
0.392625
0.00101319
0.392135
0.00101322
0.391645
0.00101325
0.391154
0.00101327
0.390664
0.00101329
0.390174
0.0010133
0.389683
0.00101332
0.389193
0.00101333
0.388703
0.00101334
0.388212
0.00101334
0.387722
0.00101335
0.387232
0.00101336
0.386741
0.00101336
0.386251
0.00101337
0.38576
0.00101337
0.38527
0.00101337
0.38478
0.00101337
0.384289
0.00101338
0.383799
0.00101338
0.383309
0.00101338
0.382818
0.00101338
0.382328
0.00101338
0.00101338
0.386783
-0.0480773
0.395333
-0.025661
0.400542
-0.0155367
0.40381
-0.00961223
0.405919
-0.0061309
0.407291
-0.00393092
0.408182
-0.00250011
0.408748
-0.00151206
0.409076
-0.000800591
0.409218
-0.000253293
0.409225
0.000134499
0.409151
0.000389829
0.409011
0.000582136
0.408821
0.000733599
0.408586
0.000872607
0.408313
0.000982385
0.408013
0.00106614
0.407691
0.00113207
0.40735
0.00118596
0.406995
0.00122967
0.406628
0.0012648
0.406251
0.00129348
0.405866
0.00131775
0.405475
0.00133757
0.405078
0.00135397
0.404676
0.00136766
0.404271
0.00137906
0.403862
0.00138858
0.403451
0.00139655
0.403038
0.00140322
0.402622
0.00140883
0.402206
0.00141355
0.401787
0.00141752
0.401368
0.00142086
0.400948
0.00142367
0.400527
0.00142603
0.400105
0.00142802
0.399683
0.00142969
0.39926
0.0014311
0.398837
0.00143229
0.398413
0.00143329
0.39799
0.00143414
0.397566
0.00143485
0.397141
0.00143544
0.396717
0.00143595
0.396293
0.00143637
0.395868
0.00143673
0.395443
0.00143703
0.395018
0.00143729
0.394594
0.0014375
0.394169
0.00143768
0.393744
0.00143784
0.393319
0.00143796
0.392893
0.00143807
0.392468
0.00143816
0.392043
0.00143824
0.391618
0.0014383
0.391193
0.00143836
0.390768
0.0014384
0.390343
0.00143844
0.389917
0.00143848
0.389492
0.0014385
0.389067
0.00143853
0.388642
0.00143855
0.388216
0.00143856
0.387791
0.00143858
0.387366
0.00143859
0.386941
0.0014386
0.386515
0.00143861
0.38609
0.00143861
0.385665
0.00143862
0.38524
0.00143863
0.384814
0.00143863
0.384389
0.00143863
0.383964
0.00143864
0.383539
0.00143864
0.383113
0.00143864
0.382688
0.00143864
0.382263
0.00143865
0.00143865
0.379139
-0.0629389
0.387695
-0.0342179
0.392957
-0.0207984
0.396346
-0.0130012
0.398574
-0.00835924
0.400063
-0.00541957
0.401062
-0.00349945
0.401732
-0.00218205
0.402162
-0.00122979
0.402414
-0.000505287
0.402525
2.3249e-05
0.402545
0.000369353
0.402493
0.000634531
0.402399
0.000827786
0.402263
0.00100818
0.40209
0.00115564
0.401888
0.00126794
0.401664
0.00135657
0.401421
0.0014288
0.401163
0.00148731
0.400894
0.00153424
0.400615
0.00157258
0.400327
0.00160508
0.400033
0.00163162
0.399734
0.00165355
0.399429
0.00167187
0.399121
0.00168711
0.39881
0.00169985
0.398496
0.0017105
0.39818
0.00171943
0.397862
0.00172692
0.397542
0.00173324
0.397221
0.00173854
0.396899
0.00174301
0.396576
0.00174676
0.396252
0.00174991
0.395927
0.00175257
0.395602
0.00175481
0.395277
0.00175669
0.394951
0.00175828
0.394624
0.00175961
0.394298
0.00176074
0.393971
0.00176169
0.393644
0.00176249
0.393317
0.00176316
0.392989
0.00176373
0.392662
0.00176421
0.392334
0.00176461
0.392007
0.00176495
0.391679
0.00176523
0.391351
0.00176548
0.391023
0.00176568
0.390695
0.00176585
0.390368
0.00176599
0.39004
0.00176611
0.389712
0.00176622
0.389384
0.0017663
0.389056
0.00176638
0.388728
0.00176644
0.3884
0.00176649
0.388071
0.00176653
0.387743
0.00176657
0.387415
0.0017666
0.387087
0.00176663
0.386759
0.00176665
0.386431
0.00176667
0.386103
0.00176668
0.385775
0.0017667
0.385447
0.00176671
0.385119
0.00176672
0.384791
0.00176672
0.384462
0.00176673
0.384134
0.00176674
0.383806
0.00176674
0.383478
0.00176675
0.38315
0.00176675
0.382822
0.00176675
0.382494
0.00176676
0.382166
0.00176676
0.00176676
0.368974
-0.0767111
0.377571
-0.0428145
0.382894
-0.0261217
0.386456
-0.0165632
0.388843
-0.0107463
0.390491
-0.00706698
0.39164
-0.00464881
0.392448
-0.00298934
0.393006
-0.00178836
0.393397
-0.000896274
0.393643
-0.000222782
0.3938
0.000212736
0.393878
0.000556741
0.393901
0.000804157
0.393894
0.00101546
0.393852
0.00119781
0.393781
0.00133898
0.393686
0.00145143
0.393572
0.00154224
0.393444
0.0016157
0.393304
0.00167448
0.393154
0.00172255
0.392995
0.0017634
0.39283
0.00179676
0.39266
0.00182427
0.392484
0.00184728
0.392305
0.0018664
0.392122
0.00188238
0.391937
0.00189575
0.39175
0.00190695
0.39156
0.00191634
0.391369
0.00192426
0.391177
0.00193092
0.390983
0.00193651
0.390789
0.00194122
0.390594
0.00194517
0.390398
0.0019485
0.390201
0.00195131
0.390004
0.00195367
0.389807
0.00195565
0.389609
0.00195733
0.389411
0.00195874
0.389213
0.00195993
0.389014
0.00196093
0.388816
0.00196177
0.388617
0.00196248
0.388418
0.00196308
0.388219
0.00196358
0.38802
0.00196401
0.387821
0.00196436
0.387622
0.00196467
0.387423
0.00196492
0.387223
0.00196513
0.387024
0.00196531
0.386825
0.00196547
0.386625
0.00196559
0.386426
0.0019657
0.386226
0.00196579
0.386027
0.00196587
0.385828
0.00196593
0.385628
0.00196599
0.385429
0.00196603
0.385229
0.00196607
0.38503
0.00196611
0.38483
0.00196613
0.384631
0.00196616
0.384431
0.00196618
0.384232
0.00196619
0.384032
0.00196621
0.383833
0.00196622
0.383633
0.00196623
0.383434
0.00196624
0.383234
0.00196624
0.383035
0.00196625
0.382835
0.00196626
0.382636
0.00196626
0.382436
0.00196627
0.382237
0.00196627
0.382037
0.00196627
0.00196628
0.356342
-0.0890008
0.365006
-0.0514779
0.370427
-0.0315432
0.374174
-0.0203095
0.376776
-0.0133483
0.378621
-0.00891211
0.379961
-0.00598928
0.380942
-0.00397034
0.381678
-0.00252451
0.382232
-0.00144952
0.382658
-0.000649248
0.382974
-0.000103498
0.383212
0.000318914
0.383394
0.000621891
0.383536
0.000873423
0.38365
0.00108442
0.383741
0.00124825
0.383806
0.00138573
0.383853
0.00149521
0.383885
0.00158413
0.383904
0.00165487
0.383914
0.00171266
0.383916
0.00176194
0.38391
0.00180225
0.383899
0.00183541
0.383883
0.00186318
0.383863
0.00188623
0.38384
0.00190549
0.383814
0.00192162
0.383786
0.00193511
0.383756
0.00194642
0.383724
0.00195596
0.383691
0.00196398
0.383657
0.00197071
0.383622
0.00197638
0.383586
0.00198114
0.383549
0.00198515
0.383512
0.00198853
0.383475
0.00199137
0.383436
0.00199376
0.383398
0.00199578
0.383359
0.00199747
0.38332
0.0019989
0.383281
0.0020001
0.383242
0.00200112
0.383202
0.00200197
0.383163
0.00200269
0.383123
0.0020033
0.383083
0.00200381
0.383043
0.00200424
0.383003
0.0020046
0.382963
0.0020049
0.382923
0.00200516
0.382883
0.00200538
0.382843
0.00200556
0.382803
0.00200571
0.382763
0.00200584
0.382723
0.00200595
0.382683
0.00200604
0.382642
0.00200612
0.382602
0.00200619
0.382562
0.00200624
0.382522
0.00200629
0.382482
0.00200633
0.382441
0.00200636
0.382401
0.00200639
0.382361
0.00200641
0.382321
0.00200643
0.38228
0.00200645
0.38224
0.00200646
0.3822
0.00200647
0.38216
0.00200648
0.382119
0.00200649
0.382079
0.0020065
0.382039
0.00200651
0.381999
0.00200651
0.381958
0.00200652
0.381918
0.00200652
0.381878
0.00200653
0.00200653
0.341348
-0.0993542
0.350084
-0.0602139
0.355638
-0.0370973
0.359598
-0.0242693
0.362437
-0.0161873
0.36452
-0.0109952
0.36608
-0.00754991
0.367287
-0.00517713
0.368231
-0.00346841
0.36899
-0.00220806
0.369613
-0.00127307
0.370122
-0.00061212
0.370567
-0.000125647
0.370933
0.000255887
0.371269
0.000537346
0.371559
0.00079416
0.371832
0.000975237
0.372086
0.00113189
0.372323
0.00125816
0.372545
0.00136244
0.372754
0.00144516
0.372954
0.00151311
0.373145
0.00157114
0.373328
0.00161853
0.373506
0.00165736
0.37368
0.00168996
0.373849
0.00171693
0.374015
0.0017395
0.374178
0.00175839
0.374339
0.00177419
0.374498
0.00178745
0.374655
0.00179864
0.374811
0.00180803
0.374966
0.00181592
0.37512
0.00182256
0.375273
0.00182814
0.375425
0.00183284
0.375577
0.00183679
0.375728
0.00184012
0.375879
0.00184292
0.37603
0.00184528
0.37618
0.00184726
0.37633
0.00184894
0.37648
0.00185034
0.376629
0.00185153
0.376779
0.00185253
0.376928
0.00185337
0.377077
0.00185408
0.377226
0.00185467
0.377375
0.00185518
0.377524
0.0018556
0.377673
0.00185596
0.377822
0.00185626
0.377971
0.00185651
0.37812
0.00185672
0.378269
0.0018569
0.378417
0.00185705
0.378566
0.00185718
0.378715
0.00185729
0.378864
0.00185738
0.379012
0.00185745
0.379161
0.00185752
0.37931
0.00185757
0.379459
0.00185762
0.379607
0.00185766
0.379756
0.00185769
0.379905
0.00185772
0.380053
0.00185774
0.380202
0.00185776
0.380351
0.00185777
0.380499
0.00185779
0.380648
0.0018578
0.380797
0.00185781
0.380946
0.00185782
0.381094
0.00185783
0.381243
0.00185783
0.381392
0.00185784
0.38154
0.00185785
0.381689
0.00185785
0.00185786
0.323915
-0.106976
0.332729
-0.0690279
0.338496
-0.0428648
0.342743
-0.0285159
0.345873
-0.019317
0.348234
-0.0133562
0.350061
-0.00937721
0.351522
-0.00663775
0.352723
-0.00467028
0.353727
-0.00321121
0.354594
-0.00214085
0.355333
-0.00135035
0.35599
-0.000783228
0.356587
-0.000340498
0.357127
-2.86797e-06
0.357643
0.000278199
0.35814
0.000478292
0.358609
0.000662921
0.359056
0.000810425
0.359492
0.000926372
0.359919
0.00101888
0.360336
0.00109544
0.360746
0.00116108
0.361149
0.00121618
0.361545
0.00126133
0.361936
0.00129885
0.362323
0.00132981
0.362707
0.00135576
0.363088
0.00137748
0.363466
0.00139565
0.363843
0.00141089
0.364218
0.00142375
0.364591
0.00143454
0.364963
0.00144362
0.365335
0.00145124
0.365705
0.00145765
0.366075
0.00146305
0.366444
0.00146758
0.366813
0.0014714
0.367181
0.00147462
0.367549
0.00147732
0.367917
0.0014796
0.368284
0.00148152
0.368652
0.00148314
0.369019
0.00148449
0.369385
0.00148564
0.369752
0.0014866
0.370119
0.00148741
0.370485
0.0014881
0.370852
0.00148867
0.371218
0.00148916
0.371585
0.00148957
0.371951
0.00148991
0.372317
0.0014902
0.372684
0.00149044
0.37305
0.00149065
0.373416
0.00149082
0.373782
0.00149096
0.374149
0.00149109
0.374515
0.00149119
0.374881
0.00149128
0.375247
0.00149135
0.375613
0.00149141
0.37598
0.00149146
0.376346
0.00149151
0.376712
0.00149154
0.377078
0.00149158
0.377444
0.0014916
0.37781
0.00149162
0.378176
0.00149164
0.378542
0.00149166
0.378909
0.00149167
0.379275
0.00149168
0.379641
0.00149169
0.380007
0.0014917
0.380373
0.00149171
0.380739
0.00149172
0.381105
0.00149172
0.381471
0.00149173
0.00149174
0.30523
-0.111181
0.313456
-0.0772537
0.319512
-0.0489209
0.324032
-0.0330353
0.327415
-0.0227001
0.330036
-0.0159772
0.332117
-0.0114587
0.333818
-0.0083384
0.33527
-0.00612258
0.336539
-0.0044798
0.337659
-0.00326088
0.338666
-0.00235777
0.339585
-0.00170209
0.340434
-0.00118884
0.341242
-0.000811053
0.342022
-0.00050217
0.342759
-0.000258577
0.34346
-3.80633e-05
0.34415
0.000119869
0.344831
0.000246248
0.345499
0.000350773
0.346157
0.000436699
0.346808
0.000510958
0.347452
0.000571799
0.348091
0.00062199
0.348726
0.000663677
0.349358
0.000698282
0.349986
0.000727434
0.350612
0.000751918
0.351235
0.000772428
0.351856
0.000789644
0.352476
0.000804175
0.353094
0.000816381
0.353711
0.000826638
0.354327
0.000835259
0.354942
0.000842509
0.355557
0.000848608
0.35617
0.000853739
0.356784
0.000858056
0.357397
0.000861689
0.358009
0.000864747
0.358622
0.00086732
0.359234
0.000869486
0.359845
0.000871309
0.360457
0.000872843
0.361069
0.000874136
0.36168
0.000875222
0.362291
0.000876138
0.362902
0.000876908
0.363514
0.000877556
0.364125
0.000878102
0.364736
0.000878561
0.365347
0.000878948
0.365958
0.000879274
0.366568
0.000879548
0.367179
0.000879778
0.36779
0.000879973
0.368401
0.000880136
0.369012
0.000880274
0.369623
0.00088039
0.370233
0.000880488
0.370844
0.00088057
0.371455
0.000880639
0.372066
0.000880697
0.372676
0.000880747
0.373287
0.000880788
0.373898
0.000880824
0.374509
0.000880853
0.375119
0.000880878
0.37573
0.000880899
0.376341
0.000880917
0.376952
0.000880933
0.377562
0.000880946
0.378173
0.000880957
0.378784
0.000880967
0.379395
0.000880975
0.380005
0.000880984
0.380616
0.00088099
0.381227
0.000880997
0.000881003
0.283214
-0.108824
0.290865
-0.0849041
0.296996
-0.0550516
0.302095
-0.0381344
0.306073
-0.0266783
0.309215
-0.0191196
0.311759
-0.0140022
0.313878
-0.0104576
0.315694
-0.00793845
0.317303
-0.00608877
0.318761
-0.00471872
0.320098
-0.00369541
0.321328
-0.00293133
0.322485
-0.00234622
0.323579
-0.00190508
0.324637
-0.00155999
0.325656
-0.00127755
0.326665
-0.00104727
0.327644
-0.00085883
0.3286
-0.000710494
0.329541
-0.000589925
0.330469
-0.000491468
0.331393
-0.000412471
0.33231
-0.000345809
0.333222
-0.000289846
0.334129
-0.00024321
0.335032
-0.000204358
0.335931
-0.000171666
0.336827
-0.000144247
0.337721
-0.000121297
0.338612
-0.000102036
0.339502
-8.57925e-05
0.340391
-7.21494e-05
0.341278
-6.06878e-05
0.342164
-5.10542e-05
0.34305
-4.2954e-05
0.343935
-3.61416e-05
0.344819
-3.04112e-05
0.345702
-2.55904e-05
0.346586
-2.15343e-05
0.347469
-1.81217e-05
0.348351
-1.52502e-05
0.349233
-1.2834e-05
0.350116
-1.08003e-05
0.350998
-9.08911e-06
0.351879
-7.64901e-06
0.352761
-6.43735e-06
0.353643
-5.41763e-06
0.354524
-4.5595e-06
0.355405
-3.83742e-06
0.356287
-3.22973e-06
0.357168
-2.71826e-06
0.358049
-2.28781e-06
0.35893
-1.9256e-06
0.359812
-1.62073e-06
0.360693
-1.36406e-06
0.361574
-1.14803e-06
0.362455
-9.66205e-07
0.363336
-8.13105e-07
0.364217
-6.84213e-07
0.365098
-5.75652e-07
0.365979
-4.84316e-07
0.36686
-4.07355e-07
0.367741
-3.42514e-07
0.368622
-2.87891e-07
0.369503
-2.41781e-07
0.370384
-2.02953e-07
0.371265
-1.7013e-07
0.372146
-1.42401e-07
0.373027
-1.18895e-07
0.373908
-9.89472e-08
0.37479
-8.19296e-08
0.375671
-6.73674e-08
0.376552
-5.47984e-08
0.377433
-4.38689e-08
0.378314
-3.42376e-08
0.379195
-2.56285e-08
0.380076
-1.77781e-08
0.380957
-1.04639e-08
-3.43631e-09
1.06611
-0.09782
-1.07712
1.05428
-0.0730706
1.05227
-0.053042
1.05292
-0.0387825
1.05471
-0.0284746
1.05675
-0.0211622
1.05869
-0.0159371
1.06039
-0.0121597
1.06184
-0.00938388
1.06306
-0.00730859
1.06408
-0.00574268
1.06494
-0.00455106
1.06565
-0.00364265
1.06624
-0.00293638
1.06672
-0.00238556
1.06711
-0.00195298
1.06744
-0.00160187
1.06771
-0.00131622
1.06793
-0.00108691
1.06812
-0.000901068
1.06828
-0.000748851
1.06841
-0.000623771
1.06852
-0.000520072
1.06861
-0.000435679
1.06869
-0.000365166
1.06875
-0.000306331
1.0688
-0.000257196
1.06885
-0.000216019
1.06889
-0.000181498
1.06892
-0.000152548
1.06894
-0.000128244
1.06896
-0.000107827
1.06898
-9.06726e-05
1.069
-7.62581e-05
1.06901
-6.4143e-05
1.06902
-5.3958e-05
1.06903
-4.53938e-05
1.06904
-3.81913e-05
1.06905
-3.21333e-05
1.06905
-2.70371e-05
1.06906
-2.27499e-05
1.06906
-1.91431e-05
1.06906
-1.61084e-05
1.06907
-1.35548e-05
1.06907
-1.14062e-05
1.06907
-9.59824e-06
1.06907
-8.07704e-06
1.06907
-6.797e-06
1.06908
-5.71988e-06
1.06908
-4.81354e-06
1.06908
-4.05085e-06
1.06908
-3.40902e-06
1.06908
-2.86891e-06
1.06908
-2.4144e-06
1.06908
-2.0319e-06
1.06908
-1.70995e-06
1.06908
-1.43899e-06
1.06908
-1.21093e-06
1.06908
-1.01896e-06
1.06908
-8.57355e-07
1.06908
-7.21296e-07
1.06908
-6.06771e-07
1.06908
-5.10317e-07
1.06908
-4.29086e-07
1.06908
-3.60644e-07
1.06908
-3.02822e-07
1.06908
-2.54135e-07
1.06908
-2.13027e-07
1.06908
-1.78286e-07
1.06908
-1.48854e-07
1.06908
-1.23866e-07
1.06908
-1.02563e-07
1.06908
-8.4323e-08
1.06908
-6.85896e-08
1.06908
-5.4904e-08
1.06908
-4.28489e-08
1.06908
-3.20737e-08
1.06908
-2.22487e-08
1.06908
-1.30947e-08
-4.3055e-09
1.07703
-0.0797229
-1.09513
1.06558
-0.0616216
1.06109
-0.0485511
1.05957
-0.0372594
1.05963
-0.0285361
1.06038
-0.021912
1.06137
-0.0169324
1.0624
-0.0131847
1.06336
-0.0103453
1.06423
-0.00817368
1.06498
-0.00650192
1.06564
-0.00520603
1.0662
-0.00419802
1.06666
-0.00340577
1.06706
-0.00277857
1.06738
-0.00227983
1.06766
-0.00187575
1.06789
-0.00154738
1.06808
-0.00128031
1.06824
-0.00106267
1.06838
-0.000884054
1.06849
-0.000736983
1.06859
-0.000615381
1.06867
-0.000515065
1.06873
-0.000431541
1.06879
-0.000361907
1.06884
-0.000303749
1.06888
-0.000255068
1.06891
-0.000214281
1.06894
-0.000180083
1.06896
-0.000151385
1.06898
-0.000127282
1.06899
-0.000107035
1.06901
-9.00221e-05
1.06902
-7.57227e-05
1.06903
-6.37012e-05
1.06904
-5.35927e-05
1.06904
-4.50912e-05
1.06905
-3.79404e-05
1.06906
-3.19249e-05
1.06906
-2.68641e-05
1.06906
-2.26061e-05
1.06907
-1.90235e-05
1.06907
-1.60088e-05
1.06907
-1.3472e-05
1.06907
-1.13373e-05
1.06907
-9.54103e-06
1.06907
-8.02941e-06
1.06908
-6.75735e-06
1.06908
-5.68687e-06
1.06908
-4.78601e-06
1.06908
-4.02787e-06
1.06908
-3.38984e-06
1.06908
-2.85288e-06
1.06908
-2.40097e-06
1.06908
-2.02061e-06
1.06908
-1.70047e-06
1.06908
-1.43101e-06
1.06908
-1.20418e-06
1.06908
-1.01323e-06
1.06908
-8.52469e-07
1.06908
-7.17122e-07
1.06908
-6.03139e-07
1.06908
-5.07128e-07
1.06908
-4.26227e-07
1.06908
-3.57973e-07
1.06908
-3.00431e-07
1.06908
-2.51844e-07
1.06908
-2.10773e-07
1.06908
-1.7598e-07
1.06908
-1.46438e-07
1.06908
-1.21254e-07
1.06908
-9.96883e-08
1.06908
-8.10886e-08
1.06908
-6.49075e-08
1.06908
-5.06565e-08
1.06908
-3.79171e-08
1.06908
-2.63032e-08
1.06908
-1.54801e-08
-5.09312e-09
1.084
-0.0622154
-1.10151
1.07339
-0.0510058
1.06759
-0.0427544
1.0647
-0.0343717
1.06354
-0.0273714
1.06331
-0.0216903
1.06358
-0.0171945
1.06406
-0.0136686
1.06462
-0.0109085
1.06519
-0.00874295
1.06573
-0.00703921
1.06622
-0.00569375
1.06665
-0.0046283
1.06702
-0.00377928
1.06734
-0.00309887
1.06761
-0.00255143
1.06784
-0.00210635
1.06804
-0.00174313
1.06821
-0.00144599
1.06835
-0.00120235
1.06846
-0.00100168
1.06856
-0.000835919
1.06864
-0.000698565
1.06871
-0.000584777
1.06877
-0.000490035
1.06882
-0.000411002
1.06886
-0.000344961
1.0689
-0.000289686
1.06893
-0.000243371
1.06895
-0.000204534
1.06897
-0.000171942
1.06899
-0.000144572
1.069
-0.00012158
1.06902
-0.00010226
1.06903
-8.60197e-05
1.06904
-7.23658e-05
1.06904
-6.08842e-05
1.06905
-5.12275e-05
1.06905
-4.31048e-05
1.06906
-3.62714e-05
1.06906
-3.05224e-05
1.06906
-2.56853e-05
1.06907
-2.16152e-05
1.06907
-1.81903e-05
1.06907
-1.53083e-05
1.06907
-1.2883e-05
1.06907
-1.0842e-05
1.06908
-9.12451e-06
1.06908
-7.67911e-06
1.06908
-6.46271e-06
1.06908
-5.43903e-06
1.06908
-4.5775e-06
1.06908
-3.85245e-06
1.06908
-3.24223e-06
1.06908
-2.72865e-06
1.06908
-2.29639e-06
1.06908
-1.93257e-06
1.06908
-1.62633e-06
1.06908
-1.36855e-06
1.06908
-1.15154e-06
1.06908
-9.68843e-07
1.06908
-8.15017e-07
1.06908
-6.85475e-07
1.06908
-5.76357e-07
1.06908
-4.84408e-07
1.06908
-4.06863e-07
1.06908
-3.41464e-07
1.06908
-2.86245e-07
1.06908
-2.39562e-07
1.06908
-2.00019e-07
1.06908
-1.66439e-07
1.06908
-1.37816e-07
1.06908
-1.13303e-07
1.06908
-9.21629e-08
1.06908
-7.37706e-08
1.06908
-5.75739e-08
1.06908
-4.30939e-08
1.06908
-2.9895e-08
1.06908
-1.7593e-08
-5.78963e-09
1.0874
-0.0480045
-1.10161
1.07821
-0.0418103
1.0723
-0.0368479
1.06882
-0.0308901
1.06692
-0.0254782
1.06602
-0.0207883
1.06571
-0.0168833
1.06574
-0.0136929
1.06594
-0.0111117
1.06623
-0.00903191
1.06655
-0.00735854
1.06686
-0.0060117
1.06716
-0.00492667
1.06743
-0.00404984
1.06767
-0.00333878
1.06788
-0.00276043
1.06806
-0.00228724
1.06822
-0.00189889
1.06835
-0.00157935
1.06847
-0.00131592
1.06856
-0.0010981
1.06864
-0.000917576
1.06871
-0.000767625
1.06877
-0.000642966
1.06882
-0.000539041
1.06886
-0.000452255
1.0689
-0.000379675
1.06893
-0.000318898
1.06895
-0.000267955
1.06897
-0.000225223
1.06899
-0.000189353
1.069
-0.000159227
1.06902
-0.000133916
1.06903
-0.000112644
1.06903
-9.47611e-05
1.06904
-7.97243e-05
1.06905
-6.70785e-05
1.06905
-5.64419e-05
1.06906
-4.74943e-05
1.06906
-3.99666e-05
1.06906
-3.36331e-05
1.06907
-2.83039e-05
1.06907
-2.38196e-05
1.06907
-2.0046e-05
1.06907
-1.68704e-05
1.06907
-1.4198e-05
1.06908
-1.1949e-05
1.06908
-1.00564e-05
1.06908
-8.46353e-06
1.06908
-7.12302e-06
1.06908
-5.99484e-06
1.06908
-5.04535e-06
1.06908
-4.24624e-06
1.06908
-3.57368e-06
1.06908
-3.00762e-06
1.06908
-2.53119e-06
1.06908
-2.13018e-06
1.06908
-1.79264e-06
1.06908
-1.5085e-06
1.06908
-1.26931e-06
1.06908
-1.06794e-06
1.06908
-8.98383e-07
1.06908
-7.55593e-07
1.06908
-6.35314e-07
1.06908
-5.33959e-07
1.06908
-4.48499e-07
1.06908
-3.76413e-07
1.06908
-3.15546e-07
1.06908
-2.64085e-07
1.06908
-2.20495e-07
1.06908
-1.83476e-07
1.06908
-1.51924e-07
1.06908
-1.24901e-07
1.06908
-1.01597e-07
1.06908
-8.13211e-08
1.06908
-6.34668e-08
1.06908
-4.75042e-08
1.06908
-3.29549e-08
1.06908
-1.93931e-08
-6.38294e-09
1.0888
-0.0370129
-1.09979
1.08108
-0.0340892
1.07556
-0.0313309
1.07194
-0.0272652
1.06967
-0.02321
1.06833
-0.0194532
1.06761
-0.0161611
1.06728
-0.0133599
1.06718
-0.0110175
1.06723
-0.00907837
1.06735
-0.00748239
1.06752
-0.00617289
1.06769
-0.00510007
1.06786
-0.0042208
1.06802
-0.00349923
1.06817
-0.00290617
1.0683
-0.00241726
1.06841
-0.00201339
1.06851
-0.00167918
1.0686
-0.00140219
1.06867
-0.00117221
1.06873
-0.000980926
1.06879
-0.000821596
1.06883
-0.000688753
1.06887
-0.000577805
1.06891
-0.000485023
1.06893
-0.000407343
1.06896
-0.000342243
1.06898
-0.000287643
1.06899
-0.000241819
1.06901
-0.00020334
1.06902
-0.000171013
1.06903
-0.000143846
1.06904
-0.000121009
1.06904
-0.000101807
1.06905
-8.56584e-05
1.06905
-7.2076e-05
1.06906
-6.06503e-05
1.06906
-5.1038e-05
1.06907
-4.29504e-05
1.06907
-3.61454e-05
1.06907
-3.04192e-05
1.06907
-2.56005e-05
1.06907
-2.15454e-05
1.06907
-1.81328e-05
1.06908
-1.52608e-05
1.06908
-1.28438e-05
1.06908
-1.08096e-05
1.06908
-9.09763e-06
1.06908
-7.6568e-06
1.06908
-6.44417e-06
1.06908
-5.42358e-06
1.06908
-4.56462e-06
1.06908
-3.84167e-06
1.06908
-3.23319e-06
1.06908
-2.72104e-06
1.06908
-2.28997e-06
1.06908
-1.92711e-06
1.06908
-1.62167e-06
1.06908
-1.36455e-06
1.06908
-1.14807e-06
1.06908
-9.65796e-07
1.06908
-8.12295e-07
1.06908
-6.82991e-07
1.06908
-5.74032e-07
1.06908
-4.82168e-07
1.06908
-4.04674e-07
1.06908
-3.3924e-07
1.06908
-2.83917e-07
1.06908
-2.37054e-07
1.06908
-1.97255e-07
1.06908
-1.63334e-07
1.06908
-1.3428e-07
1.06908
-1.09227e-07
1.06908
-8.74276e-08
1.06908
-6.82327e-08
1.06908
-5.10711e-08
1.06908
-3.54295e-08
1.06908