/*--------------------------------*- C++ -*----------------------------------*\
  =========                 |
  \\      /  F ield         | OpenFOAM: The Open Source CFD Toolbox
   \\    /   O peration     | Website:  https://openfoam.org
    \\  /    A nd           | Version:  10
     \\/     M anipulation  |
\*---------------------------------------------------------------------------*/
FoamFile
{
    format      ascii;
    class       surfaceScalarField;
    location    "6.4416e-05";
    object      phi_0;
}
// * * * * * * * * * * * * * * * * * * * * * * * * * * * * * * * * * * * * * //

dimensions      [0 3 -1 0 0 0 0];

internalField   nonuniform List<scalar> 
14980
(
0.0364255
-0.514574
0.478148
0.0666399
-0.432304
0.402089
0.0943432
-0.396487
0.368784
0.120134
-0.369638
0.343848
0.144588
-0.351133
0.326679
0.168004
-0.337656
0.31424
0.190473
-0.327632
0.305163
0.211932
-0.319995
0.298536
0.231171
-0.314329
0.29509
-0.309022
0.289656
0.250536
0.0332009
-0.547774
0.0607664
-0.459869
0.0860202
-0.421741
0.109506
-0.393124
0.131748
-0.373375
0.153027
-0.358935
0.17348
-0.348086
0.193166
-0.339681
0.211714
-0.332878
-0.327215
0.229907
0.0297862
-0.577561
0.054527
-0.48461
0.0771799
-0.444394
0.0982332
-0.414177
0.118163
-0.393305
0.137235
-0.378006
0.155612
-0.366463
0.173419
-0.357487
0.190727
-0.350185
-0.344445
0.207958
0.0262054
-0.603766
0.0479714
-0.506376
0.0678871
-0.464309
0.0863904
-0.43268
0.103908
-0.410822
0.120687
-0.394786
0.136897
-0.382673
0.152675
-0.373265
0.168132
-0.365642
-0.359871
0.183558
0.0224832
-0.626249
0.0411381
-0.525031
0.058197
-0.481368
0.0740431
-0.448527
0.0890499
-0.425829
0.103439
-0.409175
0.11737
-0.396603
0.13097
-0.386866
0.144349
-0.379021
-0.373198
0.157675
0.0186434
-0.644892
0.0340693
-0.540457
0.0481673
-0.495466
0.06126
-0.461619
0.0736638
-0.438233
0.0855683
-0.42108
0.0971097
-0.408145
0.108396
-0.398151
0.11951
-0.390135
-0.384246
0.130557
0.0147106
-0.659603
0.0268087
-0.552555
0.0378573
-0.506515
0.048114
-0.471876
0.0578339
-0.447953
0.0671693
-0.430415
0.0762285
-0.417204
0.085094
-0.407017
0.0938255
-0.398867
-0.39291
0.10249
0.01071
-0.670313
0.0194023
-0.561247
0.0273287
-0.514441
0.0346816
-0.479229
0.0416517
-0.454923
0.0483499
-0.437113
0.0548541
-0.423708
0.061222
-0.413385
0.0674927
-0.405137
-0.399126
0.0737083
0.00666971
-0.676983
0.0118992
-0.566477
0.0166444
-0.519187
0.0210425
-0.483627
0.0252137
-0.459094
0.0292251
-0.441125
0.0331232
-0.427606
0.0369414
-0.417203
0.0407014
-0.408897
-0.402851
0.0444266
0.00261657
-0.679599
0.00434609
-0.568206
0.00586807
-0.520709
0.00727804
-0.485037
0.0086198
-0.460436
0.00991447
-0.442419
0.0111761
-0.428868
0.0124146
-0.418442
0.0136363
-0.410119
0.0148479
-0.404063
0.0532709
-0.0532709
1.07494e-09
0.0979785
-0.0447076
9.45812e-10
0.13886
-0.0408818
8.24525e-10
0.176962
-0.0381013
7.24755e-10
0.213136
-0.0361746
6.48191e-10
0.247901
-0.0347643
5.83942e-10
0.281603
-0.0337023
5.27565e-10
0.31449
-0.0328873
4.40339e-10
0.34672
-0.0322295
3.21613e-10
-0.0318003
0.37852
1.43444e-10
0.052911
-0.106182
0.0973011
-0.0890977
0.137946
-0.0815271
0.175825
-0.0759796
0.211788
-0.0721379
0.246348
-0.0693241
0.279849
-0.0672037
0.312536
-0.0655746
0.344565
-0.0642584
-0.0633979
0.376163
0.0522185
-0.1584
0.0960426
-0.132922
0.136194
-0.121678
0.173614
-0.113399
0.209143
-0.107668
0.243286
-0.103467
0.27638
-0.100297
0.308662
-0.0978571
0.340285
-0.0958807
-0.0945821
0.371469
0.0512068
-0.209607
0.0941955
-0.17591
0.133602
-0.161085
0.170333
-0.15013
0.205213
-0.142547
0.238732
-0.136986
0.271218
-0.132784
0.302898
-0.129537
0.333914
-0.126897
-0.125142
0.364474
0.0498755
-0.259483
0.0917677
-0.217803
0.130185
-0.199503
0.166002
-0.185947
0.200021
-0.176566
0.232716
-0.169682
0.264405
-0.164472
0.295298
-0.16043
0.325521
-0.15712
-0.154869
0.355248
0.0482294
-0.307712
0.0887687
-0.258342
0.12596
-0.236694
0.160644
-0.22063
0.193596
-0.209518
0.225277
-0.201363
0.255991
-0.195187
0.285932
-0.19037
0.315207
-0.186396
-0.183565
0.343903
0.0462747
-0.353987
0.0852119
-0.297279
0.120949
-0.272431
0.154285
-0.253967
0.185971
-0.241203
0.216455
-0.231847
0.246035
-0.224766
0.274889
-0.219225
0.303127
-0.214634
-0.211038
0.3306
0.0440203
-0.398007
0.0811134
-0.334372
0.115176
-0.306494
0.146958
-0.28575
0.177181
-0.271426
0.206285
-0.260951
0.234579
-0.25306
0.262237
-0.246883
0.289442
-0.241838
-0.237222
0.315626
0.0414741
-0.439481
0.0764923
-0.36939
0.108674
-0.338675
0.1387
-0.315775
0.16726
-0.299987
0.194798
-0.288489
0.221659
-0.279921
0.248101
-0.273325
0.274641
-0.268378
-0.26315
0.300568
0.0386669
0.0713659
0.101475
0.129547
0.156238
0.18199
0.207232
0.232444
0.259156
0.285662
0.394687
-0.0161667
-2.26135e-09
0.403159
-0.00847203
-1.80003e-09
0.408227
-0.00506831
-7.01476e-10
0.411333
-0.00310647
-2.74867e-10
0.413293
-0.00195944
6.333e-10
0.414532
-0.0012393
1.09392e-09
0.415324
-0.000791895
1.5685e-09
0.415797
-0.000473164
4.29588e-10
0.416035
-0.000237516
3.10779e-10
0.416084
-4.94825e-05
-2.62516e-10
0.415987
9.75175e-05
-1.30652e-10
0.415824
0.000162869
2.47881e-11
0.415597
0.000226751
5.72252e-11
0.415307
0.000290449
4.92677e-11
0.414966
0.000341019
6.40706e-11
0.41459
0.000375943
2.79515e-11
0.414186
0.000403197
1.10433e-10
0.413762
0.000424147
9.13965e-11
0.413321
0.000441387
1.19066e-10
0.412866
0.000455151
2.18731e-11
0.412399
0.000466256
1.74453e-11
0.411924
0.000475529
-4.47939e-12
0.411441
0.000483441
-3.26062e-12
0.410951
0.00048989
-7.30212e-12
0.410455
0.000495216
-1.87829e-11
0.409956
0.000499658
-1.88551e-11
0.409452
0.000503369
-3.27411e-11
0.408946
0.000506479
-2.85515e-11
0.408437
0.000509088
-4.04873e-11
0.407926
0.00051128
-3.62198e-11
0.407412
0.000513124
-4.46914e-11
0.406898
0.000514679
-4.45323e-11
0.406382
0.000515989
-4.48151e-11
0.405865
0.000517093
-5.3407e-11
0.405347
0.000518024
-4.9324e-11
0.404828
0.000518808
-5.53704e-11
0.404308
0.000519469
-5.4968e-11
0.403788
0.000520026
-5.61147e-11
0.403268
0.000520496
-5.58724e-11
0.402747
0.000520892
-5.36376e-11
0.402226
0.000521226
-5.55136e-11
0.401704
0.000521508
-5.26212e-11
0.401182
0.000521745
-5.15333e-11
0.400661
0.000521945
-4.50491e-11
0.400138
0.000522114
-4.49041e-11
0.399616
0.000522256
-3.791e-11
0.399094
0.000522376
-3.72313e-11
0.398571
0.000522477
-3.00887e-11
0.398049
0.000522562
-3.03988e-11
0.397526
0.000522634
-2.47338e-11
0.397003
0.000522694
-2.70038e-11
0.396481
0.000522745
-2.18674e-11
0.395958
0.000522788
-2.46603e-11
0.395435
0.000522825
-1.82716e-11
0.394912
0.000522855
-2.05625e-11
0.394389
0.000522881
-1.21363e-11
0.393866
0.000522902
-1.35939e-11
0.393343
0.000522921
-4.01473e-12
0.392821
0.000522936
-5.84776e-12
0.392298
0.000522949
-1.60897e-12
0.391775
0.00052296
-6.11099e-11
0.391252
0.000522969
-5.95954e-11
0.390729
0.000522977
-6.70752e-11
0.390206
0.000522984
-5.29159e-11
0.389683
0.000522989
-9.20018e-12
0.38916
0.000522994
-2.65705e-11
0.388637
0.000522998
1.41036e-11
0.388114
0.000523001
-5.32647e-12
0.387591
0.000523004
-2.73775e-12
0.387068
0.000523007
-8.02278e-12
0.386545
0.000523008
-6.23183e-12
0.386022
0.00052301
2.19244e-12
0.385499
0.000523012
-2.23972e-12
0.384976
0.000523013
8.95375e-12
0.384453
0.000523014
7.61954e-13
0.38393
0.000523015
1.0982e-11
0.383407
0.000523016
2.7438e-13
0.382884
0.000523017
8.90824e-12
0.382361
0.000523017
-2.4293e-12
0.000523018
2.66362e-12
0.392119
-0.0321229
0.400588
-0.0169403
0.405681
-0.0101616
0.408826
-0.00625149
0.410828
-0.00396115
0.412106
-0.00251819
0.412929
-0.0016143
0.413435
-0.000979082
0.413705
-0.00050755
0.413798
-0.000142607
0.413731
0.000164633
0.413599
0.0002945
0.413404
0.000421744
0.413148
0.000546855
0.41284
0.000648511
0.412498
0.00071846
0.412128
0.000773297
0.411737
0.000815309
0.411328
0.000849886
0.410906
0.000877447
0.410472
0.000899676
0.41003
0.000918248
0.409579
0.000934116
0.409122
0.000947038
0.408659
0.000957705
0.408192
0.000966602
0.407722
0.000974037
0.407248
0.000980267
0.406771
0.000985492
0.406293
0.000989883
0.405812
0.000993575
0.40533
0.00099669
0.404847
0.000999314
0.404363
0.00100152
0.403877
0.00100339
0.403391
0.00100496
0.402904
0.00100628
0.402417
0.0010074
0.401929
0.00100834
0.401441
0.00100913
0.400952
0.0010098
0.400463
0.00101036
0.399974
0.00101084
0.399485
0.00101124
0.398996
0.00101158
0.398506
0.00101186
0.398016
0.0010121
0.397526
0.0010123
0.397037
0.00101247
0.396547
0.00101262
0.396057
0.00101274
0.395566
0.00101284
0.395076
0.00101292
0.394586
0.001013
0.394096
0.00101306
0.393606
0.00101311
0.393115
0.00101315
0.392625
0.00101319
0.392135
0.00101322
0.391645
0.00101325
0.391154
0.00101327
0.390664
0.00101329
0.390174
0.0010133
0.389683
0.00101332
0.389193
0.00101333
0.388703
0.00101334
0.388212
0.00101334
0.387722
0.00101335
0.387232
0.00101336
0.386741
0.00101336
0.386251
0.00101337
0.38576
0.00101337
0.38527
0.00101337
0.38478
0.00101337
0.384289
0.00101338
0.383799
0.00101338
0.383309
0.00101338
0.382818
0.00101338
0.382328
0.00101338
0.00101338
0.386995
-0.0476488
0.395458
-0.0254036
0.400601
-0.0153048
0.403824
-0.00947385
0.405909
-0.00604697
0.407269
-0.00387756
0.408154
-0.00249907
0.408731
-0.00155661
0.409069
-0.000845513
0.409236
-0.0003092
0.409233
0.000166884
0.409165
0.000362795
0.409033
0.000554027
0.408843
0.000736133
0.408603
0.00088914
0.408327
0.000994356
0.408023
0.00107738
0.407697
0.00114071
0.407355
0.00119282
0.406998
0.00123424
0.40663
0.00126763
0.406252
0.00129555
0.405867
0.00131946
0.405475
0.0013389
0.405078
0.00135494
0.404676
0.00136832
0.404271
0.0013795
0.403862
0.00138887
0.403451
0.00139673
0.403038
0.00140333
0.402622
0.00140888
0.402205
0.00141357
0.401787
0.00141751
0.401368
0.00142083
0.400948
0.00142363
0.400527
0.00142599
0.400105
0.00142798
0.399683
0.00142966
0.39926
0.00143107
0.398837
0.00143226
0.398413
0.00143327
0.39799
0.00143411
0.397566
0.00143483
0.397141
0.00143543
0.396717
0.00143593
0.396293
0.00143636
0.395868
0.00143672
0.395443
0.00143702
0.395018
0.00143728
0.394593
0.0014375
0.394169
0.00143768
0.393744
0.00143783
0.393319
0.00143796
0.392893
0.00143807
0.392468
0.00143816
0.392043
0.00143824
0.391618
0.0014383
0.391193
0.00143836
0.390768
0.0014384
0.390343
0.00143844
0.389917
0.00143848
0.389492
0.0014385
0.389067
0.00143853
0.388642
0.00143855
0.388216
0.00143856
0.387791
0.00143858
0.387366
0.00143859
0.386941
0.0014386
0.386515
0.00143861
0.38609
0.00143861
0.385665
0.00143862
0.38524
0.00143863
0.384814
0.00143863
0.384389
0.00143863
0.383964
0.00143864
0.383539
0.00143864
0.383113
0.00143864
0.382688
0.00143864
0.382263
0.00143865
0.00143865
0.379329
-0.062504
0.387795
-0.0338696
0.39301
-0.0205199
0.396353
-0.0128168
0.398563
-0.0082573
0.400043
-0.00535743
0.401036
-0.00349127
0.401715
-0.00223642
0.402151
-0.00128088
0.402419
-0.000577538
0.402544
4.16392e-05
0.402552
0.000354904
0.40251
0.000595798
0.402421
0.00082545
0.40228
0.00103061
0.402103
0.00117104
0.401897
0.00128291
0.40167
0.00136798
0.401425
0.00143792
0.401166
0.00149329
0.400896
0.00153789
0.400616
0.00157523
0.400328
0.00160732
0.400034
0.00163335
0.399734
0.0016548
0.399429
0.00167271
0.399121
0.00168767
0.39881
0.00170021
0.398496
0.00171072
0.39818
0.00171955
0.397862
0.00172698
0.397542
0.00173324
0.397221
0.00173851
0.396899
0.00174296
0.396576
0.0017467
0.396252
0.00174986
0.395927
0.00175251
0.395602
0.00175476
0.395277
0.00175664
0.394951
0.00175823
0.394624
0.00175958
0.394298
0.00176071
0.393971
0.00176166
0.393644
0.00176246
0.393317
0.00176314
0.392989
0.00176371
0.392662
0.00176419
0.392334
0.0017646
0.392007
0.00176494
0.391679
0.00176523
0.391351
0.00176547
0.391023
0.00176567
0.390695
0.00176584
0.390368
0.00176599
0.39004
0.00176611
0.389712
0.00176621
0.389384
0.0017663
0.389056
0.00176637
0.388728
0.00176644
0.3884
0.00176649
0.388071
0.00176653
0.387743
0.00176657
0.387415
0.0017666
0.387087
0.00176663
0.386759
0.00176665
0.386431
0.00176667
0.386103
0.00176668
0.385775
0.0017667
0.385447
0.00176671
0.385119
0.00176672
0.384791
0.00176672
0.384462
0.00176673
0.384134
0.00176674
0.383806
0.00176674
0.383478
0.00176675
0.38315
0.00176675
0.382822
0.00176675
0.382494
0.00176676
0.382166
0.00176676
0.00176676
0.369139
-0.0763946
0.377638
-0.0423688
0.382936
-0.0258181
0.386454
-0.0163343
0.388828
-0.0106312
0.390471
-0.00700091
0.391617
-0.0046368
0.392427
-0.00304641
0.392995
-0.00184891
0.393384
-0.000967043
0.393674
-0.000248054
0.393805
0.000224082
0.393888
0.000512824
0.393922
0.000791052
0.39391
0.00104285
0.393864
0.00121674
0.393789
0.00135777
0.393692
0.00146557
0.393576
0.00155359
0.393446
0.001623
0.393305
0.00167885
0.393155
0.00172568
0.392996
0.00176614
0.392831
0.00179884
0.39266
0.00182576
0.392484
0.00184825
0.392305
0.00186704
0.392122
0.00188278
0.391937
0.00189598
0.391749
0.00190707
0.39156
0.00191638
0.391369
0.00192425
0.391177
0.00193087
0.390983
0.00193644
0.390789
0.00194114
0.390593
0.00194509
0.390397
0.00194843
0.390201
0.00195124
0.390004
0.0019536
0.389807
0.0019556
0.389609
0.00195728
0.389411
0.0019587
0.389213
0.00195989
0.389014
0.00196089
0.388816
0.00196174
0.388617
0.00196246
0.388418
0.00196306
0.388219
0.00196357
0.38802
0.00196399
0.387821
0.00196435
0.387622
0.00196466
0.387423
0.00196491
0.387223
0.00196513
0.387024
0.00196531
0.386825
0.00196546
0.386625
0.00196559
0.386426
0.0019657
0.386226
0.00196579
0.386027
0.00196587
0.385828
0.00196593
0.385628
0.00196599
0.385429
0.00196603
0.385229
0.00196607
0.38503
0.0019661
0.38483
0.00196613
0.384631
0.00196616
0.384431
0.00196618
0.384232
0.00196619
0.384032
0.00196621
0.383833
0.00196622
0.383633
0.00196623
0.383434
0.00196624
0.383234
0.00196624
0.383035
0.00196625
0.382835
0.00196626
0.382636
0.00196626
0.382436
0.00196627
0.382237
0.00196627
0.382037
0.00196627
0.00196628
0.356491
-0.0889825
0.365035
-0.0509122
0.370458
-0.0312413
0.374161
-0.0200378
0.376753
-0.0132233
0.378599
-0.00884687
0.379939
-0.0059768
0.380917
-0.0040244
0.381663
-0.00259464
0.382215
-0.00151912
0.382664
-0.00069725
0.382987
-9.82544e-05
0.383219
0.000280363
0.383407
0.000603438
0.38355
0.000899635
0.383663
0.00110408
0.383749
0.00127179
0.383811
0.00140274
0.383856
0.00150891
0.383886
0.00159266
0.383905
0.00165978
0.383915
0.00171612
0.383916
0.00176516
0.38391
0.00180464
0.383899
0.00183709
0.383883
0.00186423
0.383863
0.0018869
0.38384
0.0019059
0.383814
0.00192184
0.383786
0.0019352
0.383756
0.00194643
0.383724
0.00195591
0.383691
0.00196389
0.383657
0.00197061
0.383622
0.00197627
0.383586
0.00198103
0.383549
0.00198505
0.383512
0.00198844
0.383474
0.00199129
0.383436
0.00199369
0.383398
0.00199571
0.383359
0.00199742
0.38332
0.00199886
0.383281
0.00200007
0.383242
0.00200108
0.383202
0.00200194
0.383163
0.00200267
0.383123
0.00200328
0.383083
0.00200379
0.383043
0.00200422
0.383003
0.00200459
0.382963
0.0020049
0.382923
0.00200515
0.382883
0.00200537
0.382843
0.00200556
0.382803
0.00200571
0.382763
0.00200584
0.382723
0.00200595
0.382683
0.00200604
0.382642
0.00200612
0.382602
0.00200619
0.382562
0.00200624
0.382522
0.00200629
0.382482
0.00200633
0.382441
0.00200636
0.382401
0.00200639
0.382361
0.00200641
0.382321
0.00200643
0.38228
0.00200645
0.38224
0.00200646
0.3822
0.00200647
0.38216
0.00200648
0.382119
0.00200649
0.382079
0.0020065
0.382039
0.00200651
0.381999
0.00200651
0.381958
0.00200652
0.381918
0.00200652
0.381878
0.00200653
0.00200653
0.341469
-0.099851
0.35005
-0.0594935
0.355634
-0.0368255
0.359569
-0.0239723
0.362402
-0.0160563
0.36449
-0.0109354
0.366058
-0.00754462
0.36726
-0.0052261
0.368207
-0.00354165
0.36897
-0.00228201
0.369601
-0.00132899
0.370132
-0.000628446
0.370564
-0.000152133
0.370944
0.000223375
0.371265
0.000578915
0.37157
0.00079937
0.37184
0.00100122
0.372091
0.00115177
0.372325
0.00127485
0.372545
0.00137244
0.372755
0.00145065
0.372954
0.0015168
0.373144
0.00157474
0.373328
0.00162111
0.373506
0.00165914
0.373679
0.00169101
0.373848
0.00171759
0.374014
0.00173986
0.374178
0.00175856
0.374339
0.00177423
0.374498
0.00178741
0.374655
0.00179853
0.374811
0.00180789
0.374966
0.00181577
0.37512
0.00182241
0.375273
0.001828
0.375425
0.00183271
0.375577
0.00183667
0.375728
0.00184002
0.375879
0.00184283
0.37603
0.0018452
0.37618
0.0018472
0.37633
0.00184888
0.376479
0.0018503
0.376629
0.00185149
0.376779
0.0018525
0.376928
0.00185334
0.377077
0.00185405
0.377226
0.00185466
0.377375
0.00185516
0.377524
0.00185559
0.377673
0.00185595
0.377822
0.00185625
0.377971
0.0018565
0.37812
0.00185672
0.378269
0.0018569
0.378417
0.00185705
0.378566
0.00185718
0.378715
0.00185728
0.378864
0.00185738
0.379012
0.00185745
0.379161
0.00185752
0.37931
0.00185757
0.379459
0.00185762
0.379607
0.00185765
0.379756
0.00185769
0.379905
0.00185772
0.380053
0.00185774
0.380202
0.00185776
0.380351
0.00185777
0.380499
0.00185779
0.380648
0.0018578
0.380797
0.00185781
0.380946
0.00185782
0.381094
0.00185783
0.381243
0.00185783
0.381392
0.00185784
0.38154
0.00185785
0.381689
0.00185785
0.00185786
0.32397
-0.108195
0.332694
-0.0682178
0.338507
-0.0426382
0.342714
-0.0281795
0.345837
-0.0191789
0.348201
-0.0132998
0.350037
-0.00938041
0.351497
-0.00668683
0.352697
-0.00474095
0.353701
-0.00328589
0.354577
-0.00220543
0.355325
-0.00137638
0.355985
-0.000811938
0.356589
-0.000380574
0.357127
4.07045e-05
0.357652
0.000274299
0.358148
0.000505424
0.358614
0.000685345
0.35906
0.000829643
0.359494
0.00093789
0.35992
0.00102512
0.360337
0.00109926
0.360746
0.00116556
0.361148
0.00121919
0.361544
0.00126327
0.361935
0.00129992
0.362322
0.00133046
0.362706
0.00135608
0.363087
0.00137758
0.363466
0.00139562
0.363842
0.00141077
0.364217
0.00142357
0.364591
0.00143434
0.364963
0.0014434
0.365335
0.00145104
0.365705
0.00145747
0.366075
0.00146288
0.366444
0.00146744
0.366813
0.00147128
0.367181
0.00147451
0.367549
0.00147723
0.367917
0.00147952
0.368284
0.00148145
0.368652
0.00148308
0.369019
0.00148445
0.369385
0.0014856
0.369752
0.00148657
0.370119
0.00148739
0.370485
0.00148808
0.370852
0.00148865
0.371218
0.00148914
0.371585
0.00148955
0.371951
0.0014899
0.372317
0.00149019
0.372684
0.00149043
0.37305
0.00149064
0.373416
0.00149081
0.373782
0.00149096
0.374149
0.00149108
0.374515
0.00149119
0.374881
0.00149128
0.375247
0.00149135
0.375613
0.00149141
0.37598
0.00149146
0.376346
0.00149151
0.376712
0.00149154
0.377078
0.00149158
0.377444
0.0014916
0.37781
0.00149162
0.378176
0.00149164
0.378542
0.00149166
0.378909
0.00149167
0.379275
0.00149168
0.379641
0.00149169
0.380007
0.0014917
0.380373
0.00149171
0.380739
0.00149172
0.381105
0.00149172
0.381471
0.00149173
0.00149174
0.305484
-0.11311
0.313204
-0.0759378
0.319357
-0.0487912
0.323888
-0.0327109
0.327295
-0.0225852
0.329936
-0.0159414
0.332037
-0.011481
0.333747
-0.0083974
0.335203
-0.00619628
0.336474
-0.00455701
0.337599
-0.00333123
0.338622
-0.00239862
0.339554
-0.00174381
0.340407
-0.00123398
0.341234
-0.000786714
0.342008
-0.000499264
0.342754
-0.00024015
0.343459
-2.00344e-05
0.344151
0.000138069
0.344831
0.000257681
0.345499
0.000356771
0.346158
0.000440449
0.346807
0.000516599
0.347451
0.000575123
0.34809
0.000623957
0.348725
0.000664714
0.349357
0.000698885
0.349985
0.000727676
0.350611
0.000751919
0.351234
0.000772285
0.351856
0.000789415
0.352475
0.000803897
0.353094
0.000816086
0.353711
0.00082635
0.354327
0.000834992
0.354942
0.000842269
0.355556
0.000848396
0.35617
0.000853555
0.356784
0.000857898
0.357397
0.000861555
0.358009
0.000864633
0.358622
0.000867224
0.359234
0.000869406
0.359845
0.000871242
0.360457
0.000872788
0.361069
0.000874089
0.36168
0.000875184
0.362291
0.000876107
0.362902
0.000876882
0.363514
0.000877535
0.364125
0.000878085
0.364736
0.000878547
0.365347
0.000878937
0.365958
0.000879264
0.366568
0.000879541
0.367179
0.000879772
0.36779
0.000879968
0.368401
0.000880133
0.369012
0.000880271
0.369623
0.000880388
0.370233
0.000880486
0.370844
0.000880568
0.371455
0.000880638
0.372066
0.000880697
0.372676
0.000880746
0.373287
0.000880788
0.373898
0.000880823
0.374509
0.000880853
0.375119
0.000880878
0.37573
0.000880899
0.376341
0.000880917
0.376952
0.000880933
0.377562
0.000880946
0.378173
0.000880957
0.378784
0.000880967
0.379395
0.000880975
0.380005
0.000880984
0.380616
0.00088099
0.381227
0.000880997
0.000881003
0.283657
-0.111106
0.290886
-0.0831666
0.296711
-0.0546163
0.301851
-0.0378504
0.305881
-0.026616
0.309069
-0.0191292
0.311644
-0.0140554
0.313779
-0.0105329
0.315606
-0.00802338
0.317223
-0.00617402
0.318689
-0.00479721
0.320041
-0.00375026
0.321278
-0.00298124
0.322438
-0.00239342
0.323555
-0.00190352
0.324617
-0.00156162
0.325644
-0.00126744
0.326655
-0.00103083
0.327639
-0.000845432
0.328599
-0.000702353
0.32954
-0.000585117
0.330469
-0.000487959
0.331393
-0.0004071
0.33231
-0.000342298
0.333222
-0.000287715
0.334128
-0.000242033
0.335031
-0.000203731
0.33593
-0.000171456
0.336826
-0.0001443
0.33772
-0.000121503
0.338612
-0.000102331
0.339502
-8.613e-05
0.340391
-7.24972e-05
0.341278
-6.10223e-05
0.342164
-5.1362e-05
0.34305
-4.32295e-05
0.343935
-3.63836e-05
0.344819
-3.06207e-05
0.345702
-2.577e-05
0.346586
-2.16869e-05
0.347469
-1.82505e-05
0.348351
-1.53583e-05
0.349233
-1.29242e-05
0.350116
-1.08753e-05
0.350997
-9.15127e-06
0.351879
-7.70046e-06
0.352761
-6.4797e-06
0.353642
-5.45239e-06
0.354524
-4.58794e-06
0.355405
-3.86065e-06
0.356287
-3.24866e-06
0.357168
-2.73368e-06
0.358049
-2.30031e-06
0.35893
-1.93563e-06
0.359812
-1.62875e-06
0.360693
-1.3705e-06
0.361574
-1.15317e-06
0.362455
-9.70286e-07
0.363336
-8.16289e-07
0.364217
-6.86702e-07
0.365098
-5.77589e-07
0.365979
-4.85809e-07
0.36686
-4.08517e-07
0.367741
-3.43451e-07
0.368622
-2.8863e-07
0.369503
-2.4224e-07
0.370384
-2.03229e-07
0.371265
-1.70311e-07
0.372146
-1.42511e-07
0.373027
-1.18972e-07
0.373908
-9.899e-08
0.37479
-8.19608e-08
0.375671
-6.73785e-08
0.376552
-5.4808e-08
0.377433
-4.38686e-08
0.378314
-3.42402e-08
0.379195
-2.56234e-08
0.380076
-1.77791e-08
0.380957
-1.04586e-08
-3.43984e-09
1.0652
-0.098084
-1.07822
1.05437
-0.0723311
1.05245
-0.0527033
1.05319
-0.0385861
1.05497
-0.0283954
1.05698
-0.0211407
1.05887
-0.0159512
1.06054
-0.0121949
1.06195
-0.0094319
1.06313
-0.00736176
1.06413
-0.00579366
1.06497
-0.00459139
1.06566
-0.00367554
1.06623
-0.00296196
1.06672
-0.00239004
1.06711
-0.0019518
1.06744
-0.00159439
1.06771
-0.00130608
1.06794
-0.00107574
1.06813
-0.000891973
1.06829
-0.000742049
1.06842
-0.000618434
1.06853
-0.000515526
1.06862
-0.000432109
1.06869
-0.000362596
1.06876
-0.00030456
1.06881
-0.000255991
1.06885
-0.000215243
1.06889
-0.000181033
1.06892
-0.000152308
1.06894
-0.000128164
1.06897
-0.000107845
1.06898
-9.07517e-05
1.069
-7.637e-05
1.06901
-6.42688e-05
1.06902
-5.40856e-05
1.06903
-4.5516e-05
1.06904
-3.83041e-05
1.06905
-3.22348e-05
1.06905
-2.71269e-05
1.06906
-2.28282e-05
1.06906
-1.92105e-05
1.06906
-1.61659e-05
1.06907
-1.36036e-05
1.06907
-1.14473e-05
1.06907
-9.63279e-06
1.06907
-8.10586e-06
1.06907
-6.82092e-06
1.06908
-5.73966e-06
1.06908
-4.82983e-06
1.06908
-4.06422e-06
1.06908
-3.41996e-06
1.06908
-2.87782e-06
1.06908
-2.42159e-06
1.06908
-2.03766e-06
1.06908
-1.71457e-06
1.06908
-1.44267e-06
1.06908
-1.21384e-06
1.06908
-1.02123e-06
1.06908
-8.59112e-07
1.06908
-7.22647e-07
1.06908
-6.07793e-07
1.06908
-5.11096e-07
1.06908
-4.29683e-07
1.06908
-3.61077e-07
1.06908
-3.03097e-07
1.06908
-2.5429e-07
1.06908
-2.13107e-07
1.06908
-1.78317e-07
1.06908
-1.48856e-07
1.06908
-1.2385e-07
1.06908
-1.02537e-07
1.06908
-8.42915e-08
1.06908
-6.85575e-08
1.06908
-5.48727e-08
1.06908
-4.28214e-08
1.06908
-3.20492e-08
1.06908
-2.22297e-08
1.06908
-1.30781e-08
-4.29482e-09
1.07658
-0.0789272
-1.09573
1.06564
-0.0613966
1.06116
-0.0482226
1.05966
-0.0370881
1.05971
-0.028445
1.06045
-0.0218757
1.06143
-0.0169306
1.06244
-0.0132046
1.06338
-0.0103779
1.06423
-0.00821248
1.06498
-0.00654062
1.06563
-0.00523965
1.06618
-0.00422558
1.06664
-0.00342588
1.06704
-0.00278701
1.06737
-0.0022813
1.06765
-0.00187215
1.06788
-0.00154093
1.06808
-0.00127286
1.06824
-0.00105589
1.06838
-0.000878462
1.06849
-0.000732339
1.06859
-0.000611372
1.06867
-0.000511808
1.06874
-0.000429077
1.06879
-0.000360108
1.06884
-0.000302465
1.06888
-0.000254185
1.06891
-0.0002137
1.06894
-0.000179725
1.06896
-0.000151188
1.06898
-0.000127197
1.06899
-0.000107024
1.06901
-9.00578e-05
1.06902
-7.57851e-05
1.06903
-6.37769e-05
1.06904
-5.36728e-05
1.06904
-4.51701e-05
1.06905
-3.80148e-05
1.06906
-3.1993e-05
1.06906
-2.69252e-05
1.06906
-2.266e-05
1.06907
-1.90703e-05
1.06907
-1.60491e-05
1.06907
-1.35065e-05
1.06907
-1.13666e-05
1.06907
-9.56572e-06
1.06907
-8.0501e-06
1.06908
-6.77459e-06
1.06908
-5.70118e-06
1.06908
-4.79782e-06
1.06908
-4.03758e-06
1.06908
-3.39778e-06
1.06908
-2.85932e-06
1.06908
-2.40616e-06
1.06908
-2.02478e-06
1.06908
-1.7038e-06
1.06908
-1.43364e-06
1.06908
-1.20624e-06
1.06908
-1.01482e-06
1.06908
-8.53693e-07
1.06908
-7.18048e-07
1.06908
-6.03837e-07
1.06908
-5.0765e-07
1.06908
-4.26598e-07
1.06908
-3.58209e-07
1.06908
-3.00562e-07
1.06908
-2.51905e-07
1.06908
-2.10787e-07
1.06908
-1.75967e-07
1.06908
-1.46406e-07
1.06908
-1.21215e-07
1.06908
-9.96445e-08
1.06908
-8.1045e-08
1.06908
-6.48665e-08
1.06908
-5.06199e-08
1.06908
-3.78852e-08
1.06908
-2.62772e-08
1.06908
-1.54573e-08
-5.07729e-09
1.08382
-0.0611905
-1.10155
1.07336
-0.0509389
1.06763
-0.0424884
1.06477
-0.0342367
1.06362
-0.0272873
1.06339
-0.0216493
1.06364
-0.0171821
1.06411
-0.0136754
1.06466
-0.0109274
1.06522
-0.00876844
1.06574
-0.00706632
1.06622
-0.00571871
1.06665
-0.00464903
1.06701
-0.00379436
1.06733
-0.00310676
1.06761
-0.00255362
1.06784
-0.00210448
1.06804
-0.00173878
1.0682
-0.0014405
1.06835
-0.00119685
1.06846
-0.000996742
1.06856
-0.000831619
1.06865
-0.000694866
1.06872
-0.000581682
1.06877
-0.00048757
1.06882
-0.000409101
1.06886
-0.000343526
1.0689
-0.000288629
1.06893
-0.000242613
1.06895
-0.000204006
1.06897
-0.000171587
1.06899
-0.000144346
1.069
-0.000121446
1.06902
-0.00010219
1.06903
-8.59929e-05
1.06904
-7.23672e-05
1.06904
-6.09029e-05
1.06905
-5.12561e-05
1.06905
-4.31381e-05
1.06906
-3.63062e-05
1.06906
-3.05564e-05
1.06906
-2.57172e-05
1.06907
-2.16444e-05
1.06907
-1.82165e-05
1.06907
-1.53313e-05
1.06907
-1.29031e-05
1.06907
-1.08594e-05
1.06908
-9.13929e-06
1.06908
-7.69163e-06
1.06908
-6.47324e-06
1.06908
-5.44782e-06
1.06908
-4.58479e-06
1.06908
-3.85845e-06
1.06908
-3.24713e-06
1.06908
-2.73262e-06
1.06908
-2.29959e-06
1.06908
-1.93512e-06
1.06908
-1.62834e-06
1.06908
-1.37011e-06
1.06908
-1.15274e-06
1.06908
-9.69757e-07
1.06908
-8.15698e-07
1.06908
-6.85974e-07
1.06908
-5.76713e-07
1.06908
-4.84644e-07
1.06908
-4.07e-07
1.06908
-3.41524e-07
1.06908
-2.8625e-07
1.06908
-2.39532e-07
1.06908
-1.99968e-07
1.06908
-1.66376e-07
1.06908
-1.3775e-07
1.06908
-1.13236e-07
1.06908
-9.21002e-08
1.06908
-7.37135e-08
1.06908
-5.75238e-08
1.06908
-4.30512e-08
1.06908
-2.98604e-08
1.06908
-1.75636e-08
-5.77049e-09
1.08736
-0.0470721
-1.10148
1.07818
-0.0417597
1.07232
-0.0366261
1.06886
-0.0307765
1.06697
-0.0254022
1.06607
-0.0207473
1.06575
-0.0168661
1.06577
-0.0136923
1.06596
-0.0111221
1.06624
-0.00904864
1.06656
-0.00737769
1.06687
-0.00603022
1.06716
-0.00494249
1.06743
-0.00406164
1.06767
-0.00334575
1.06788
-0.00276304
1.06806
-0.0022866
1.06822
-0.00189607
1.06835
-0.00157538
1.06847
-0.0013116
1.06856
-0.00109395
1.06864
-0.000913796
1.06871
-0.000764288
1.06877
-0.000640102
1.06882
-0.000536677
1.06886
-0.000450358
1.0689
-0.000378185
1.06893
-0.000317752
1.06895
-0.00026709
1.06897
-0.000224582
1.06899
-0.000188888
1.069
-0.000158898
1.06902
-0.000133689
1.06903
-0.000112492
1.06904
-9.46635e-05
1.06904
-7.96654e-05
1.06905
-6.70466e-05
1.06905
-5.64284e-05
1.06906
-4.74928e-05
1.06906
-3.99727e-05
1.06906
-3.36436e-05
1.06907
-2.83167e-05
1.06907
-2.38332e-05
1.06907
-2.00596e-05
1.06907
-1.68833e-05
1.06907
-1.42099e-05
1.06908
-1.19597e-05
1.06908
-1.00658e-05
1.06908
-8.47177e-06
1.06908
-7.1301e-06
1.06908
-6.00086e-06
1.06908
-5.05042e-06
1.06908
-4.25047e-06
1.06908
-3.57717e-06
1.06908
-3.01047e-06
1.06908
-2.53348e-06
1.06908
-2.13201e-06
1.06908
-1.79407e-06
1.06908
-1.50962e-06
1.06908
-1.27016e-06
1.06908
-1.06856e-06
1.06908
-8.98835e-07
1.06908
-7.55907e-07
1.06908
-6.35519e-07
1.06908
-5.34076e-07
1.06908
-4.48545e-07
1.06908
-3.76403e-07
1.06908
-3.15497e-07
1.06908
-2.64013e-07
1.06908
-2.20409e-07
1.06908
-1.83386e-07
1.06908
-1.51834e-07
1.06908
-1.24814e-07
1.06908
-1.01518e-07
1.06908
-8.12501e-08
1.06908
-6.34053e-08
1.06908
-4.74522e-08
1.06908
-3.29131e-08
1.06908
-1.93584e-08
-6.36126e-09
1.08878
-0.0362705
-1.09958
1.08105
-0.0340279
1.07557
-0.0311476
1.07196
-0.0271672
1.0697
-0.0231421
1.06837
-0.0194138
1.06764
-0.0161417
1.0673
-0.0133548
1.0672
-0.0110221
1.06724
-0.00908883
1.06736
-0.00749561
1.06752
-0.00618639
1.06769
-0.005112
1.06786
-0.00422998
1.06802
-0.00350507
1.06816
-0.00290878
1.06829
-0.0024173
1.06841
-0.00201159
1.06851
-0.00167627
1.0686
-0.00139879
1.06867
-0.00116875
1.06873
-0.000977644
1.06879
-0.000818615
1.06883
-0.000686129
1.06887
-0.000575573
1.06891
-0.000483173
1.06893
-0.000405843
1.06896
-0.00034105
1.06898
-0.000286708
1.06899
-0.000241098
1.06901
-0.000202792
1.06902
-0.000170603
1.06903
-0.000143543
1.06904
-0.000120788
1.06904
-0.000101649
1.06905
-8.55473e-05
1.06905
-7.19994e-05
1.06906
-6.0599e-05
1.06906
-5.10049e-05
1.06907
-4.29303e-05
1.06907
-3.61343e-05
1.06907
-3.04142e-05
1.06907
-2.55996e-05
1.06907
-2.1547e-05
1.06907
-1.8136e-05
1.06908
-1.52648e-05
1.06908
-1.28481e-05
1.06908
-1.08139e-05
1.06908
-9.10167e-06
1.06908
-7.6605e-06
1.06908
-6.44747e-06
1.06908
-5.42646e-06
1.06908
-4.56708e-06
1.06908
-3.84374e-06
1.06908
-3.2349e-06
1.06908
-2.72243e-06
1.06908
-2.29107e-06
1.06908
-1.92797e-06
1.06908
-1.62232e-06
1.06908
-1.36502e-06
1.06908
-1.1484e-06
1.06908
-9.66014e-07
1.06908
-8.12421e-07
1.06908
-6.83045e-07
1.06908
-5.74029e-07
1.06908
-4.8212e-07
1.06908
-4.04593e-07
1.06908
-3.39136e-07
1.06908
-2.838e-07
1.06908
-2.36933e-07
1.06908
-1.97136e-07
1.06908
-1.6322e-07
1.06908
-1.34174e-07
1.06908
-1.09131e-07
1.06908
-8.73435e-08
1.06908
-6.81605e-08
1.06908
-5.10107e-08
1.06908
-3.53813e-08
1.06908
-2.08098e-08