/*--------------------------------*- C++ -*----------------------------------*\
  =========                 |
  \\      /  F ield         | OpenFOAM: The Open Source CFD Toolbox
   \\    /   O peration     | Website:  https://openfoam.org
    \\  /    A nd           | Version:  10
     \\/     M anipulation  |
\*---------------------------------------------------------------------------*/
FoamFile
{
    format      ascii;
    class       volVectorField;
    location    "6.4416e-05";
    object      U;
}
// * * * * * * * * * * * * * * * * * * * * * * * * * * * * * * * * * * * * * //

dimensions      [0 1 -1 0 0 0 0];

internalField   nonuniform List<vector> 
7600
(
(4.29906 -2.67283 -4.93873e-20)
(3.49458 -2.34298 -3.33111e-20)
(3.83859 -1.49164 -6.73193e-20)
(3.69974 -1.25368 -1.93707e-20)
(3.7002 -0.991439 7.27752e-21)
(3.68331 -0.819005 -1.43682e-20)
(3.67496 -0.688625 0)
(3.66305 -0.597513 -1.24109e-20)
(3.68084 -0.521562 7.60076e-21)
(3.60867 -0.513498 0)
(4.71907 -2.61458 8.98848e-20)
(3.85858 -2.2887 6.48075e-21)
(4.07041 -1.45577 6.78986e-20)
(3.89348 -1.22381 1.12378e-20)
(3.85231 -0.967678 1.62746e-20)
(3.80701 -0.799073 1.437e-20)
(3.77557 -0.669839 0)
(3.74467 -0.578037 -9.44385e-21)
(3.73603 -0.484302 1.88806e-21)
(3.66789 -0.479962 -1.09643e-20)
(5.12107 -2.48763 -5.49965e-20)
(4.20774 -2.17628 0)
(4.29292 -1.38361 -5.98726e-20)
(4.07968 -1.16327 9.12372e-21)
(3.9987 -0.919627 -3.07383e-20)
(3.92663 -0.759124 6.00666e-21)
(3.87427 -0.635489 -1.54763e-20)
(3.82842 -0.547331 2.17954e-20)
(3.80521 -0.454085 -5.56258e-21)
(3.74651 -0.441045 3.12197e-20)
(5.49945 -2.29932 6.34851e-20)
(4.53629 -2.01063 0)
(4.50191 -1.27753 5.98794e-20)
(4.25457 -1.07407 -3.24348e-21)
(4.13625 -0.848787 9.20146e-21)
(4.03929 -0.700214 0)
(3.96766 -0.585287 6.3533e-21)
(3.90819 -0.502913 -5.98758e-21)
(3.87124 -0.414519 1.01138e-20)
(3.8136 -0.401445 -1.64762e-21)
(5.84368 -2.05346 6.94041e-21)
(4.8351 -1.79512 -3.55331e-20)
(4.69183 -1.13984 2.57852e-20)
(4.41359 -0.958265 -3.30401e-21)
(4.26141 -0.75696 0)
(4.14203 -0.62409 -4.40172e-21)
(4.05317 -0.521045 1.25558e-20)
(3.9817 -0.446937 -5.15262e-21)
(3.93235 -0.36711 -4.55109e-21)
(3.87527 -0.3545 -7.47086e-21)
(6.14559 -1.75632 -4.02885e-20)
(5.09687 -1.53506 3.92766e-20)
(4.85807 -0.973963 -2.2148e-20)
(4.5528 -0.818746 3.30447e-21)
(4.37102 -0.64649 0)
(4.23213 -0.532741 -3.52723e-21)
(4.1283 -0.444397 3.22045e-21)
(4.0464 -0.380773 -1.15974e-21)
(3.98618 -0.312204 1.99557e-21)
(3.92868 -0.301326 -3.92154e-21)
(6.39781 -1.41513 1.77336e-20)
(5.31498 -1.23673 0)
(4.99646 -0.783938 0)
(4.66869 -0.658944 3.15172e-22)
(4.46229 -0.520116 -1.59324e-21)
(4.3072 -0.428433 -1.30886e-21)
(4.19096 -0.35717 3.05846e-21)
(4.10039 -0.305821 0)
(4.031 -0.250502 -7.01562e-22)
(3.97284 -0.241735 2.79527e-21)
(6.59441 -1.03816 2.09844e-21)
(5.4839 -0.907327 -1.77612e-21)
(5.1035 -0.574428 0)
(4.75829 -0.482785 -1.3459e-21)
(4.53285 -0.38095 3.4142e-21)
(4.36527 -0.313708 0)
(4.23946 -0.261422 -3.12788e-21)
(4.14216 -0.223744 -8.2578e-22)
(4.06564 -0.183171 1.00681e-21)
(4.00681 -0.176765 -2.20986e-21)
(6.72987 -0.634223 0)
(5.59924 -0.554701 -2.99718e-22)
(5.17647 -0.350582 8.79237e-22)
(4.81932 -0.294616 4.92167e-22)
(4.58091 -0.232419 -8.98664e-22)
(4.40483 -0.19136 0)
(4.2725 -0.159427 5.09007e-22)
(4.17063 -0.136412 5.11478e-22)
(4.08921 -0.111637 0)
(4.02988 -0.107727 -4.64671e-24)
(6.80497 -0.213261 -3.33654e-36)
(5.65802 -0.187666 -5.65298e-23)
(5.21323 -0.117973 -1.04812e-21)
(4.85004 -0.0990961 -7.59315e-23)
(4.60512 -0.0781759 -1.04576e-23)
(4.42479 -0.0643651 1.35742e-23)
(4.2892 -0.0536179 0)
(4.18504 -0.0458602 1.56929e-37)
(4.10115 -0.0375104 -5.09592e-23)
(4.04156 -0.0361692 5.20918e-23)
(1.42137 -0.213459 -2.04289e-21)
(0.97836 -0.186992 1.43089e-21)
(2.23734 -0.117752 -1.69056e-20)
(2.35437 -0.0988066 -6.81727e-22)
(2.63719 -0.0777706 -8.24443e-22)
(2.80726 -0.0638311 1.26873e-21)
(2.94081 -0.0531082 0)
(3.04326 -0.0448833 1.42357e-36)
(3.12223 -0.0383173 -6.08473e-22)
(3.19086 -0.0334173 1.5858e-21)
(1.48835 -0.628342 0)
(1.03611 -0.548723 2.82395e-21)
(2.27324 -0.348032 1.51995e-20)
(2.38491 -0.292182 -1.71468e-21)
(2.66129 -0.230381 -6.09697e-21)
(2.82718 -0.189299 0)
(2.95747 -0.157645 3.94694e-21)
(3.05754 -0.133304 3.26254e-21)
(3.13397 -0.113918 0)
(3.20192 -0.0992932 -1.01915e-21)
(1.61964 -1.03077 -1.14823e-20)
(1.15051 -0.900364 9.71296e-21)
(2.34549 -0.571345 0)
(2.44573 -0.479474 -9.78609e-21)
(2.70934 -0.378002 2.05438e-20)
(2.86682 -0.310524 0)
(2.99057 -0.258539 -1.19353e-20)
(3.08591 -0.218482 3.14158e-21)
(3.15729 -0.186806 -1.18703e-20)
(3.22384 -0.162403 -4.57592e-21)
(1.81188 -1.40612 6.15334e-20)
(1.31819 -1.22834 0)
(2.45169 -0.780045 0)
(2.53504 -0.654633 1.23521e-20)
(2.77994 -0.516162 -1.67426e-20)
(2.92508 -0.424019 4.5321e-21)
(3.03926 -0.353007 3.84996e-21)
(3.12767 -0.298084 0)
(3.19166 -0.255109 5.94043e-21)
(3.25614 -0.220863 4.57514e-21)
(2.06028 -1.74661 -1.21067e-19)
(1.53507 -1.52611 9.62962e-20)
(2.58932 -0.969672 -5.09936e-20)
(2.6507 -0.813821 7.14952e-21)
(2.8714 -0.64176 0)
(3.0006 -0.52719 9.13186e-21)
(3.10244 -0.438858 -8.33713e-21)
(3.18192 -0.370176 -1.39657e-20)
(3.23646 -0.317191 -5.75925e-21)
(3.29823 -0.272867 1.13877e-20)
(2.35847 -2.04359 9.52456e-20)
(1.79559 -1.78616 -1.04048e-19)
(2.75484 -1.13544 4.22528e-20)
(2.78979 -0.953079 -7.14805e-21)
(2.98144 -0.751706 0)
(3.09152 -0.61754 9.16559e-21)
(3.17864 -0.514049 8.17381e-21)
(3.24749 -0.432998 -7.23333e-21)
(3.29097 -0.371567 -1.45669e-20)
(3.34943 -0.316542 -1.22152e-20)
(2.69889 -2.28986 1.08979e-19)
(2.09322 -2.00223 0)
(2.9441 -1.27333 8.05044e-20)
(2.94885 -1.06905 -1.1164e-20)
(3.10731 -0.843384 3.1659e-20)
(3.19559 -0.69298 0)
(3.26609 -0.57692 -8.10164e-21)
(3.32298 -0.485205 7.31031e-21)
(3.35469 -0.417143 2.98828e-20)
(3.40947 -0.350427 -8.09955e-22)
(3.07294 -2.47949 -8.38272e-20)
(2.42061 -2.16934 -3.24752e-20)
(3.15246 -1.38013 -9.47958e-20)
(3.12393 -1.15901 1.38695e-20)
(3.24586 -0.914681 -4.47236e-20)
(3.31018 -0.751867 -8.96815e-21)
(3.36268 -0.626276 -2.42211e-20)
(3.40655 -0.526017 4.28757e-20)
(3.42712 -0.453787 -1.53158e-20)
(3.47771 -0.371657 2.52303e-20)
(3.47074 -2.60768 8.37791e-20)
(2.76895 -2.28287 -8.43123e-21)
(3.37448 -1.4529 9.25568e-20)
(3.31048 -1.22054 1.29037e-20)
(3.39344 -0.963748 2.19383e-20)
(3.43216 -0.792828 1.68706e-20)
(3.46568 -0.661031 0)
(3.49506 -0.554967 1.452e-20)
(3.50746 -0.478142 -2.84131e-20)
(3.55362 -0.376536 -1.22073e-20)
(3.88273 -2.67168 -9.62216e-20)
(3.13183 -2.34259 7.76511e-21)
(3.60561 -1.49128 -9.19631e-20)
(3.50452 -1.25303 -4.10916e-21)
(3.54671 -0.990015 -7.86628e-21)
(3.55891 -0.815632 -1.68679e-20)
(3.57428 -0.682167 0)
(3.59224 -0.576065 -1.38698e-20)
(3.61372 -0.507955 1.49166e-20)
(3.66359 -0.382319 0)
(3.29931 -0.0223148 2.28195e-22)
(3.40659 -0.0119237 -2.39286e-22)
(3.46154 -0.0073727 0)
(3.49984 -0.00466714 0)
(3.52484 -0.00311461 0)
(3.54249 -0.00213037 3.22454e-22)
(3.55527 -0.00150348 -3.05708e-22)
(3.56482 -0.00114052 0)
(3.57201 -0.000903301 -1.76843e-22)
(3.57747 -0.000744168 1.98185e-22)
(3.58162 -0.000531803 0)
(3.5849 -0.000406254 0)
(3.5876 -0.000318453 0)
(3.58982 -0.000275819 0)
(3.59161 -0.000233699 0)
(3.59304 -0.000196623 -6.01311e-23)
(3.59421 -0.000163101 1.2425e-23)
(3.59517 -0.000135505 4.78421e-23)
(3.59597 -0.000112691 0)
(3.59662 -9.42706e-05 0)
(3.59717 -7.911e-05 0)
(3.59762 -6.63254e-05 -2.21748e-24)
(3.598 -5.54812e-05 0)
(3.59832 -4.65189e-05 0)
(3.59858 -3.90307e-05 0)
(3.59881 -3.27489e-05 0)
(3.599 -2.75027e-05 0)
(3.59915 -2.31062e-05 0)
(3.59929 -1.94214e-05 -4.15939e-24)
(3.5994 -1.63299e-05 6.64904e-24)
(3.59949 -1.37338e-05 -5.39217e-25)
(3.59957 -1.15479e-05 -2.45726e-24)
(3.59964 -9.71397e-06 0)
(3.5997 -8.17217e-06 0)
(3.59974 -6.87558e-06 0)
(3.59978 -5.78488e-06 -1.31207e-25)
(3.59982 -4.86727e-06 0)
(3.59985 -4.09518e-06 0)
(3.59987 -3.44556e-06 0)
(3.59989 -2.89899e-06 0)
(3.59991 -2.43904e-06 3.92295e-25)
(3.59992 -2.05197e-06 -3.47927e-25)
(3.59993 -1.72634e-06 0)
(3.59994 -1.45237e-06 1.16088e-25)
(3.59995 -1.22182e-06 -1.1624e-25)
(3.59996 -1.02781e-06 0)
(3.59997 -8.64596e-07 -6.90044e-26)
(3.59997 -7.27258e-07 6.90949e-26)
(3.59998 -6.11796e-07 1.32899e-26)
(3.59998 -5.14631e-07 0)
(3.59998 -4.32948e-07 -3.45609e-26)
(3.59999 -3.64202e-07 3.46064e-26)
(3.59999 -3.06396e-07 -2.44091e-26)
(3.59999 -2.57748e-07 2.44414e-26)
(3.59999 -2.16842e-07 0)
(3.59999 -1.82392e-07 -1.43504e-26)
(3.59999 -1.53419e-07 1.43695e-26)
(3.59999 -1.2895e-07 9.9405e-27)
(3.6 -1.08424e-07 -9.95372e-27)
(3.6 -9.1146e-08 6.77568e-27)
(3.6 -7.65629e-08 -4.00649e-27)
(3.6 -6.42702e-08 -2.78194e-27)
(3.6 -5.39546e-08 1.01738e-27)
(3.6 -4.52767e-08 0)
(3.6 -3.8118e-08 0)
(3.6 -3.18942e-08 0)
(3.6 -2.69019e-08 0)
(3.6 -2.25913e-08 -5.80094e-28)
(3.6 -1.89246e-08 5.80876e-28)
(3.6 -1.58415e-08 5.34654e-28)
(3.6 -1.31664e-08 -3.40972e-28)
(3.6 -1.09273e-08 -9.39497e-29)
(3.6 -8.9971e-09 1.61884e-28)
(3.6 -7.29405e-09 -6.7899e-29)
(3.6 -5.88154e-09 0)
(3.6 -4.55192e-09 0)
(3.6 -3.43454e-09 0)
(3.6 -2.36411e-09 0)
(3.6 -1.39167e-09 4.77262e-31)
(3.6 -4.30345e-10 -4.77916e-31)
(3.30453 -0.0665982 5.13448e-22)
(3.40923 -0.0357402 -4.42939e-22)
(3.46267 -0.0221169 -2.38371e-23)
(3.50041 -0.0140304 4.87425e-22)
(3.52513 -0.00936607 -4.32343e-22)
(3.54263 -0.00641015 -1.72207e-23)
(3.55532 -0.00450457 3.6783e-23)
(3.56481 -0.00341018 7.05893e-22)
(3.572 -0.00269449 -7.06722e-22)
(3.57748 -0.00222221 -6.48329e-22)
(3.58164 -0.00159772 6.63432e-22)
(3.5849 -0.00122124 -5.27723e-22)
(3.58759 -0.000957538 5.28346e-22)
(3.58981 -0.000820469 0)
(3.5916 -0.000698592 -3.02041e-22)
(3.59304 -0.000588801 6.1415e-23)
(3.59421 -0.000489303 4.32806e-22)
(3.59517 -0.000406423 -1.81178e-22)
(3.59597 -0.000338059 -8.46239e-24)
(3.59662 -0.000282863 -9.87825e-23)
(3.59717 -0.000237435 1.91067e-23)
(3.59762 -0.000199096 8.2116e-23)
(3.598 -0.000166551 5.18335e-23)
(3.59832 -0.000139647 -1.00776e-23)
(3.59858 -0.000117171 -4.1868e-23)
(3.59881 -9.83128e-05 2.92914e-23)
(3.599 -8.25645e-05 -2.74255e-23)
(3.59915 -6.93655e-05 -1.80869e-23)
(3.59929 -5.83027e-05 3.86244e-24)
(3.5994 -4.90211e-05 1.47705e-23)
(3.59949 -4.12269e-05 0)
(3.59957 -3.46651e-05 0)
(3.59964 -2.91591e-05 -3.37591e-24)
(3.5997 -2.45301e-05 6.17835e-24)
(3.59974 -2.06375e-05 -2.80175e-24)
(3.59978 -1.7363e-05 1.31643e-25)
(3.59982 -1.46083e-05 0)
(3.59985 -1.22905e-05 -1.34799e-24)
(3.59987 -1.03405e-05 1.50403e-24)
(3.59989 -8.6998e-06 0)
(3.59991 -7.31924e-06 0)
(3.59992 -6.15745e-06 -4.5006e-26)
(3.59993 -5.18013e-06 -5.56907e-25)
(3.59994 -4.35787e-06 4.93708e-25)
(3.59995 -3.666e-06 -3.9304e-25)
(3.59996 -3.08375e-06 3.93523e-25)
(3.59997 -2.59401e-06 0)
(3.59997 -2.18188e-06 0)
(3.59998 -1.83533e-06 -1.33206e-26)
(3.59998 -1.54381e-06 -1.65192e-25)
(3.59998 -1.29877e-06 2.64999e-26)
(3.59999 -1.09248e-06 2.55792e-25)
(3.59999 -9.19078e-07 -1.16868e-25)
(3.59999 -7.73091e-07 -1.12034e-26)
(3.59999 -6.50389e-07 0)
(3.59999 -5.46992e-07 2.87679e-26)
(3.59999 -4.60095e-07 -2.88038e-26)
(3.59999 -3.86818e-07 1.99104e-26)
(3.6 -3.25217e-07 -1.99352e-26)
(3.6 -2.73304e-07 0)
(3.6 -2.29873e-07 -3.0575e-27)
(3.6 -1.93166e-07 -9.07214e-27)
(3.6 -1.62475e-07 1.00986e-26)
(3.6 -1.36437e-07 0)
(3.6 -1.14656e-07 0)
(3.6 -9.60566e-08 -3.78209e-27)
(3.6 -8.09025e-08 3.78686e-27)
(3.6 -6.78725e-08 0)
(3.6 -5.6885e-08 0)
(3.6 -4.75607e-08 -1.94257e-28)
(3.6 -3.96233e-08 5.08998e-28)
(3.6 -3.2787e-08 -8.84098e-28)
(3.6 -2.70254e-08 2.6152e-28)
(3.6 -2.1918e-08 2.70318e-28)
(3.6 -1.76132e-08 0)
(3.6 -1.36681e-08 -5.29694e-29)
(3.6 -1.0295e-08 0)
(3.6 -7.07736e-09 0)
(3.6 -4.20496e-09 1.89518e-30)
(3.6 -1.33199e-09 -1.89761e-30)
(3.31488 -0.109821 -2.25264e-23)
(3.4145 -0.059462 -3.83926e-23)
(3.46494 -0.0368532 -7.31976e-22)
(3.50154 -0.0234896 7.75992e-22)
(3.5257 -0.0156832 -2.88647e-23)
(3.54294 -0.01075 -1.10892e-21)
(3.55544 -0.00753345 -1.18732e-22)
(3.56481 -0.00568357 1.1991e-21)
(3.57196 -0.0044621 7.75005e-23)
(3.57749 -0.00365488 7.76123e-23)
(3.58168 -0.00280032 -3.59707e-23)
(3.58491 -0.00209478 6.34926e-23)
(3.58757 -0.00158985 -8.48712e-22)
(3.58978 -0.00135078 9.60603e-22)
(3.59158 -0.0011554 4.15394e-23)
(3.59303 -0.000977091 -4.83698e-22)
(3.5942 -0.000814864 4.842e-22)
(3.59517 -0.000676859 1.05461e-23)
(3.59596 -0.000563313 2.55316e-23)
(3.59662 -0.000471537 -1.37368e-23)
(3.59716 -0.000396028 -1.11437e-23)
(3.59762 -0.000332196 -9.01263e-24)
(3.598 -0.000277921 -7.27298e-24)
(3.59832 -0.000233031 0)
(3.59858 -0.000195541 0)
(3.59881 -0.000164068 -1.91433e-24)
(3.599 -0.000137791 0)
(3.59915 -0.000115763 0)
(3.59929 -9.72981e-05 0)
(3.5994 -8.18059e-05 1.2298e-23)
(3.59949 -6.87969e-05 -1.2311e-23)
(3.59957 -5.78466e-05 0)
(3.59964 -4.86558e-05 0)
(3.5997 -4.09291e-05 0)
(3.59974 -3.44316e-05 0)
(3.59978 -2.89663e-05 3.94351e-24)
(3.59982 -2.43687e-05 -6.60328e-25)
(3.59985 -2.05008e-05 -6.03526e-24)
(3.59987 -1.72466e-05 2.59197e-24)
(3.59989 -1.45091e-05 1.91974e-24)
(3.59991 -1.22056e-05 -3.1378e-25)
(3.59992 -1.02674e-05 -2.95769e-24)
(3.59993 -8.63696e-06 1.34941e-24)
(3.59994 -7.26548e-06 6.42275e-26)
(3.59995 -6.11142e-06 9.0613e-25)
(3.59996 -5.14043e-06 -1.46745e-24)
(3.59997 -4.32363e-06 6.70262e-25)
(3.59997 -3.63648e-06 0)
(3.59998 -3.05859e-06 0)
(3.59998 -2.57267e-06 -1.21315e-25)
(3.59998 -2.1641e-06 1.67068e-25)
(3.59999 -1.82028e-06 0)
(3.59999 -1.53119e-06 0)
(3.59999 -1.28793e-06 1.12463e-26)
(3.59999 -1.08338e-06 1.88894e-26)
(3.59999 -9.1112e-07 0)
(3.59999 -7.66257e-07 4.8127e-26)
(3.59999 -6.44186e-07 -8.24824e-27)
(3.6 -5.41438e-07 -3.09324e-26)
(3.6 -4.54907e-07 0)
(3.6 -3.82426e-07 -1.91917e-26)
(3.6 -3.2147e-07 2.22816e-26)
(3.6 -2.70406e-07 -2.03841e-27)
(3.6 -2.27186e-07 3.28955e-27)
(3.6 -1.90833e-07 0)
(3.6 -1.59976e-07 0)
(3.6 -1.34753e-07 0)
(3.6 -1.13075e-07 1.29853e-27)
(3.6 -9.47724e-08 1.77916e-27)
(3.6 -7.91804e-08 -4.28618e-28)
(3.6 -6.60225e-08 -2.366e-27)
(3.6 -5.46083e-08 2.69639e-28)
(3.6 -4.50098e-08 5.87644e-28)
(3.6 -3.65356e-08 0)
(3.6 -2.93241e-08 -1.29186e-28)
(3.6 -2.28033e-08 1.82307e-28)
(3.6 -1.71459e-08 0)
(3.6 -1.18072e-08 1.61982e-29)
(3.6 -7.00351e-09 -1.62162e-29)
(3.6 -2.2853e-09 0)
(3.33013 -0.151213 -5.40777e-23)
(3.4223 -0.0830197 0)
(3.4684 -0.0515934 -9.32144e-23)
(3.50326 -0.0330655 -8.00649e-22)
(3.52659 -0.0220974 7.53773e-22)
(3.54341 -0.015191 8.57117e-24)
(3.55562 -0.0106678 -1.08704e-21)
(3.56483 -0.0079315 -1.73088e-22)
(3.57192 -0.00618084 1.05765e-21)
(3.57745 -0.00500875 -1.47288e-22)
(3.58172 -0.00415857 1.05634e-21)
(3.58496 -0.00289708 -2.13921e-21)
(3.58757 -0.00224727 1.77928e-21)
(3.58974 -0.00185628 -9.83061e-22)
(3.59155 -0.00158805 -4.2162e-23)
(3.59301 -0.00135537 -3.35527e-23)
(3.5942 -0.0011419 -2.67552e-23)
(3.59516 -0.0009465 2.8733e-22)
(3.59596 -0.000788031 -7.78174e-23)
(3.59662 -0.00066002 -2.34803e-22)
(3.59716 -0.000554886 -1.63419e-22)
(3.59762 -0.000465825 1.72691e-22)
(3.598 -0.000389807 1.14151e-22)
(3.59832 -0.000326841 -1.93335e-22)
(3.59858 -0.00027429 1.63733e-23)
(3.59881 -0.00023014 7.02204e-23)
(3.599 -0.000193292 0)
(3.59915 -0.000162389 3.7802e-23)
(3.59929 -0.000136481 -6.87149e-23)
(3.5994 -0.000114745 3.09072e-23)
(3.59949 -9.64934e-05 -1.44247e-24)
(3.59957 -8.11337e-05 0)
(3.59964 -6.82376e-05 -1.41691e-23)
(3.5997 -5.73958e-05 2.51095e-23)
(3.59974 -4.82792e-05 -2.67548e-24)
(3.59978 -4.06115e-05 -1.03172e-23)
(3.59982 -3.41617e-05 3.37829e-24)
(3.59985 -2.87361e-05 -3.38108e-24)
(3.59987 -2.41718e-05 -2.35437e-24)
(3.59989 -2.03327e-05 3.87604e-25)
(3.59991 -1.71026e-05 1.97034e-24)
(3.59992 -1.43851e-05 1.38004e-24)
(3.59993 -1.20993e-05 -1.22229e-24)
(3.59994 -1.01769e-05 1.33149e-25)
(3.59995 -8.55935e-06 7.03814e-25)
(3.59996 -7.19862e-06 -8.14429e-25)
(3.59997 -6.05406e-06 7.85447e-26)
(3.59997 -5.09134e-06 0)
(3.59998 -4.28187e-06 5.5274e-26)
(3.59998 -3.60129e-06 2.93018e-25)
(3.59998 -3.02905e-06 -3.39181e-25)
(3.59999 -2.54758e-06 0)
(3.59999 -2.14273e-06 0)
(3.59999 -1.80216e-06 1.44228e-25)
(3.59999 -1.51577e-06 -1.86182e-25)
(3.59999 -1.27466e-06 0)
(3.59999 -1.07187e-06 0)
(3.59999 -9.00957e-07 -4.00908e-26)
(3.6 -7.57119e-07 -2.05877e-27)
(3.6 -6.36084e-07 4.05975e-26)
(3.6 -5.34651e-07 0)
(3.6 -4.49457e-07 0)
(3.6 -3.77907e-07 0)
(3.6 -3.17569e-07 -3.3003e-27)
(3.6 -2.66701e-07 9.49106e-27)
(3.6 -2.23808e-07 1.14382e-28)
(3.6 -1.88414e-07 -1.34328e-26)
(3.6 -1.58113e-07 1.46651e-29)
(3.6 -1.32513e-07 4.60009e-27)
(3.6 -1.10676e-07 0)
(3.6 -9.22221e-08 0)
(3.6 -7.63335e-08 0)
(3.6 -6.28483e-08 0)
(3.6 -5.10798e-08 3.70141e-28)
(3.6 -4.09495e-08 -3.70456e-28)
(3.6 -3.19001e-08 -8.38036e-29)
(3.6 -2.39343e-08 8.3875e-29)
(3.6 -1.65425e-08 -1.57262e-29)
(3.6 -9.79443e-09 1.57396e-29)
(3.6 -3.21162e-09 0)
(3.34999 -0.18986 5.54111e-23)
(3.4325 -0.106381 1.90086e-21)
(3.4731 -0.0662835 -1.93167e-21)
(3.50557 -0.0427885 -1.45369e-21)
(3.52779 -0.0286563 1.50304e-21)
(3.54403 -0.0197706 -1.46047e-21)
(3.55592 -0.0139448 3.1342e-21)
(3.56489 -0.0100781 -1.56083e-21)
(3.57187 -0.00787463 0)
(3.57736 -0.00626228 2.25547e-21)
(3.58176 -0.00518747 -3.14314e-21)
(3.58505 -0.00396347 1.96049e-21)
(3.58754 -0.00293995 -8.88346e-22)
(3.58969 -0.00229582 5.10972e-23)
(3.5915 -0.0020142 6.02109e-22)
(3.59298 -0.00170971 -7.99915e-23)
(3.59418 -0.00145821 -4.6116e-22)
(3.59516 -0.00121256 0)
(3.59595 -0.00101168 0)
(3.59661 -0.000847719 0)
(3.59716 -0.000713506 1.14966e-23)
(3.59762 -0.000599599 0)
(3.598 -0.000501917 1.09299e-22)
(3.59832 -0.000420896 -1.98146e-22)
(3.59858 -0.000353352 1.61109e-22)
(3.59881 -0.000296511 -7.23087e-23)
(3.599 -0.000249084 -4.79812e-23)
(3.59915 -0.000209278 8.84026e-24)
(3.59929 -0.000175896 7.12197e-23)
(3.5994 -0.000147878 -3.20511e-23)
(3.59949 -0.000124352 1.46432e-24)
(3.59957 -0.00010456 0)
(3.59964 -8.79319e-05 0)
(3.5997 -7.39521e-05 -2.25999e-26)
(3.59974 -6.21974e-05 6.83218e-25)
(3.59978 -5.2312e-05 5.67644e-25)
(3.59982 -4.39975e-05 0)
(3.59985 -3.70041e-05 0)
(3.59987 -3.11217e-05 0)
(3.59989 -2.61752e-05 4.07145e-24)
(3.59991 -2.20135e-05 -6.69688e-25)
(3.59992 -1.85128e-05 -3.20925e-24)
(3.59993 -1.55686e-05 2.22311e-24)
(3.59994 -1.3093e-05 -2.5196e-24)
(3.59995 -1.10102e-05 -7.21423e-25)
(3.59996 -9.25844e-06 8.36896e-25)
(3.59997 -7.78515e-06 -6.66932e-25)
(3.59997 -6.54617e-06 1.14801e-24)
(3.59998 -5.50448e-06 -6.05167e-25)
(3.59998 -4.62895e-06 4.74082e-26)
(3.59998 -3.89288e-06 0)
(3.59999 -3.27365e-06 0)
(3.59999 -2.75303e-06 2.77321e-26)
(3.59999 -2.31519e-06 1.92155e-25)
(3.59999 -1.94703e-06 -2.82217e-26)
(3.59999 -1.63713e-06 -2.42399e-25)
(3.59999 -1.37653e-06 2.14822e-25)
(3.59999 -1.15683e-06 -1.78057e-25)
(3.6 -9.7197e-07 8.06383e-26)
(3.6 -8.16423e-07 -7.51152e-27)
(3.6 -6.86272e-07 0)
(3.6 -5.76881e-07 4.99885e-27)
(3.6 -4.85013e-07 -1.47082e-26)
(3.6 -4.0753e-07 1.47157e-26)
(3.6 -3.42127e-07 -2.62327e-27)
(3.6 -2.87497e-07 5.38115e-27)
(3.6 -2.41798e-07 -7.48708e-27)
(3.6 -2.02902e-07 4.56526e-27)
(3.6 -1.70047e-07 -8.07455e-27)
(3.6 -1.41974e-07 6.91912e-27)
(3.6 -1.18301e-07 -2.65802e-27)
(3.6 -9.7914e-08 0)
(3.6 -8.06232e-08 8.16392e-28)
(3.6 -6.5523e-08 -5.17576e-28)
(3.6 -5.25364e-08 -2.45617e-28)
(3.6 -4.09262e-08 3.42649e-28)
(3.6 -3.07104e-08 0)
(3.6 -2.12271e-08 -2.29489e-29)
(3.6 -1.25621e-08 9.4538e-30)
(3.6 -4.12324e-09 -3.71798e-30)
(3.37409 -0.224674 -8.14923e-23)
(3.4449 -0.129615 -1.95735e-21)
(3.47912 -0.0808737 2.03679e-21)
(3.50848 -0.0527143 0)
(3.52932 -0.0354701 -3.71501e-23)
(3.54483 -0.0245501 0)
(3.55636 -0.0174 -1.19901e-21)
(3.56503 -0.0124789 2.50603e-21)
(3.57182 -0.0094155 -1.27251e-21)
(3.57729 -0.00749245 -1.73048e-21)
(3.58166 -0.00606777 1.76093e-21)
(3.58507 -0.00517735 0)
(3.58762 -0.00387196 1.49412e-21)
(3.58965 -0.00283145 -1.53545e-21)
(3.59143 -0.00229804 -1.1714e-21)
(3.59294 -0.0020457 2.26355e-22)
(3.59415 -0.00175435 1.00454e-21)
(3.59514 -0.00147655 0)
(3.59594 -0.00122948 1.73406e-23)
(3.5966 -0.00103047 4.16953e-22)
(3.59715 -0.000871633 -4.16993e-22)
(3.59761 -0.000735061 9.54415e-24)
(3.598 -0.000615983 -1.12529e-22)
(3.59832 -0.000516374 2.70587e-23)
(3.59858 -0.000433469 1.67938e-23)
(3.59881 -0.00036369 1.37275e-23)
(3.599 -0.000305511 6.13198e-23)
(3.59915 -0.000256664 -2.85361e-24)
(3.59929 -0.00021568 0)
(3.5994 -0.000181316 1.91999e-24)
(3.59949 -0.000152448 2.26626e-23)
(3.59957 -0.000128179 -4.13556e-23)
(3.59964 -0.000107785 1.76168e-23)
(3.5997 -9.06383e-05 -1.19298e-23)
(3.59974 -7.62209e-05 2.41402e-23)
(3.59978 -6.40967e-05 -1.94239e-23)
(3.59982 -5.39003e-05 1.48371e-24)
(3.59985 -4.53248e-05 1.22706e-24)
(3.59987 -3.81128e-05 6.10452e-24)
(3.59989 -3.20476e-05 4.24483e-24)
(3.59991 -2.69467e-05 -4.24524e-24)
(3.59992 -2.26572e-05 -1.99151e-25)
(3.59993 -1.90503e-05 0)
(3.59994 -1.60186e-05 0)
(3.59995 -1.3468e-05 -1.84791e-24)
(3.59996 -1.13232e-05 1.7315e-24)
(3.59997 -9.51957e-06 0)
(3.59997 -8.00313e-06 -1.08268e-24)
(3.59998 -6.72935e-06 1.07164e-24)
(3.59998 -5.65848e-06 -4.79416e-26)
(3.59998 -4.75812e-06 -2.96311e-25)
(3.59999 -4.00067e-06 2.9634e-25)
(3.59999 -3.3639e-06 1.7833e-25)
(3.59999 -2.82848e-06 -2.06359e-25)
(3.59999 -2.37833e-06 -1.42888e-25)
(3.59999 -1.99946e-06 8.11129e-27)
(3.59999 -1.68073e-06 2.03939e-26)
(3.59999 -1.41193e-06 9.82284e-26)
(3.6 -1.18609e-06 0)
(3.6 -9.96306e-07 5.47335e-26)
(3.6 -8.37575e-07 -5.47388e-26)
(3.6 -7.03983e-07 -5.03012e-27)
(3.6 -5.91758e-07 0)
(3.6 -4.9699e-07 0)
(3.6 -4.17001e-07 -1.61864e-26)
(3.6 -3.51105e-07 1.88246e-26)
(3.6 -2.94966e-07 0)
(3.6 -2.47548e-07 0)
(3.6 -2.07414e-07 -3.46964e-27)
(3.6 -1.73166e-07 2.71407e-27)
(3.6 -1.44271e-07 1.94692e-27)
(3.6 -1.19407e-07 -1.94711e-27)
(3.6 -9.8313e-08 -2.9958e-28)
(3.6 -7.98977e-08 3.50342e-28)
(3.6 -6.40604e-08 -1.13798e-28)
(3.6 -4.99046e-08 -3.33546e-28)
(3.6 -3.7447e-08 0)
(3.6 -2.58874e-08 3.80489e-29)
(3.6 -1.53134e-08 -2.81384e-29)
(3.6 -5.02918e-09 7.29497e-30)
(3.40197 -0.254078 2.96639e-21)
(3.45916 -0.151778 -2.85571e-21)
(3.48654 -0.0948828 6.00179e-23)
(3.51199 -0.0625212 -1.1968e-21)
(3.53119 -0.0422626 2.27999e-21)
(3.54581 -0.0293611 -1.04937e-21)
(3.55688 -0.0209027 0)
(3.5653 -0.015116 0)
(3.57184 -0.0110212 -3.57227e-23)
(3.57717 -0.00845061 1.09343e-21)
(3.58153 -0.00691635 -1.18341e-21)
(3.585 -0.0057983 1.32942e-21)
(3.58769 -0.00486155 -1.32888e-21)
(3.58972 -0.00370147 4.25099e-23)
(3.59137 -0.00250543 0)
(3.59285 -0.00209815 -3.3601e-23)
(3.59411 -0.00192486 -2.75128e-23)
(3.59512 -0.0017313 0)
(3.59593 -0.00145955 -1.78516e-23)
(3.59659 -0.00121463 0)
(3.59714 -0.00101578 0)
(3.59761 -0.000852279 -9.81051e-24)
(3.59799 -0.000718803 0)
(3.59831 -0.00060606 -1.30866e-23)
(3.59858 -0.000510312 -1.56506e-22)
(3.59881 -0.000428791 2.80441e-22)
(3.599 -0.000360797 -2.31475e-23)
(3.59915 -0.000303445 -1.02307e-22)
(3.59929 -0.000255153 -3.54157e-23)
(3.5994 -0.000214604 3.34357e-23)
(3.59949 -0.000180553 0)
(3.59957 -0.00015185 1.97933e-23)
(3.59964 -0.000127697 -2.32946e-24)
(3.5997 -0.000107377 -1.63494e-23)
(3.59974 -9.02863e-05 -7.53421e-25)
(3.59978 -7.59121e-05 0)
(3.59982 -6.38233e-05 -5.38951e-25)
(3.59985 -5.36567e-05 6.4333e-24)
(3.59987 -4.51077e-05 -1.07588e-24)
(3.59989 -3.79179e-05 -8.92131e-25)
(3.59991 -3.18737e-05 -4.4587e-24)
(3.59992 -2.67924e-05 0)
(3.59993 -2.25208e-05 -2.58692e-24)
(3.59995 -1.89304e-05 2.58587e-24)
(3.59995 -1.59111e-05 0)
(3.59996 -1.33734e-05 1.50578e-24)
(3.59997 -1.12399e-05 -2.76259e-24)
(3.59997 -9.44659e-06 1.25691e-24)
(3.59998 -7.94021e-06 6.04257e-26)
(3.59998 -6.67355e-06 0)
(3.59998 -5.60943e-06 0)
(3.59999 -4.71516e-06 0)
(3.59999 -3.96353e-06 -4.21168e-25)
(3.59999 -3.33224e-06 4.20998e-25)
(3.59999 -2.80154e-06 0)
(3.59999 -2.35499e-06 1.19947e-25)
(3.59999 -1.9794e-06 -3.43833e-26)
(3.59999 -1.66315e-06 -1.73909e-26)
(3.6 -1.39643e-06 -8.1644e-26)
(3.6 -1.17238e-06 0)
(3.6 -9.85298e-07 0)
(3.6 -8.28355e-07 0)
(3.6 -6.96402e-07 0)
(3.6 -5.84818e-07 -2.34987e-26)
(3.6 -4.90313e-07 2.60816e-26)
(3.6 -4.1316e-07 0)
(3.6 -3.4699e-07 0)
(3.6 -2.91026e-07 0)
(3.6 -2.43825e-07 3.41918e-27)
(3.6 -2.03546e-07 -3.41781e-27)
(3.6 -1.69552e-07 0)
(3.6 -1.40353e-07 0)
(3.6 -1.15538e-07 -2.82542e-28)
(3.6 -9.39445e-08 0)
(3.6 -7.52961e-08 0)
(3.6 -5.87052e-08 0)
(3.6 -4.4019e-08 -4.50921e-29)
(3.6 -3.04748e-08 4.50741e-29)
(3.6 -1.80253e-08 0)
(3.6 -5.9195e-09 0)
(3.43379 -0.278425 -1.11643e-22)
(3.47488 -0.176537 8.55262e-23)
(3.49526 -0.11078 -6.27548e-23)
(3.51611 -0.0739888 1.20585e-21)
(3.53339 -0.0504394 -1.16897e-21)
(3.54694 -0.0352995 -3.07414e-23)
(3.55748 -0.0252641 -6.25355e-22)
(3.56563 -0.0184366 6.24702e-22)
(3.57201 -0.0135638 0)
(3.57711 -0.0100258 -5.81357e-22)
(3.58135 -0.0077158 5.88286e-22)
(3.58483 -0.00628205 -1.67267e-23)
(3.58759 -0.00544219 0)
(3.58982 -0.00469222 -8.99365e-22)
(3.59147 -0.00379851 1.78483e-21)
(3.59277 -0.00283605 -3.13744e-23)
(3.59398 -0.0021873 -8.97133e-22)
(3.59505 -0.00172422 0)
(3.59591 -0.00157084 5.206e-22)
(3.59658 -0.00140277 -5.20065e-22)
(3.59714 -0.00122051 0)
(3.5976 -0.00104565 -1.00541e-23)
(3.59799 -0.00086529 -8.19119e-24)
(3.59831 -0.000716441 6.78913e-24)
(3.59858 -0.000600095 5.63631e-24)
(3.59881 -0.000503024 1.41009e-22)
(3.59899 -0.000421933 -2.52169e-22)
(3.59915 -0.000354107 1.11932e-22)
(3.59929 -0.000297341 -2.62985e-24)
(3.5994 -0.00024984 2.16979e-24)
(3.59949 -0.000210023 0)
(3.59957 -0.000176466 0)
(3.59964 -0.000148341 0)
(3.5997 -0.000124715 0)
(3.59975 -0.000104853 -1.19846e-23)
(3.59979 -8.81515e-05 2.03743e-24)
(3.59982 -7.4108e-05 9.90179e-24)
(3.59985 -6.22992e-05 6.84558e-24)
(3.59987 -5.23704e-05 -1.14983e-24)
(3.59989 -4.40214e-05 -5.6831e-24)
(3.59991 -3.70028e-05 0)
(3.59992 -3.11023e-05 0)
(3.59994 -2.61425e-05 0)
(3.59995 -2.19726e-05 -2.27202e-24)
(3.59995 -1.847e-05 2.40062e-24)
(3.59996 -1.5527e-05 -1.68668e-24)
(3.59997 -1.30531e-05 2.89094e-24)
(3.59997 -1.09737e-05 -1.23807e-24)
(3.59998 -9.22533e-06 -9.73083e-25)
(3.59998 -7.75469e-06 1.5246e-25)
(3.59998 -6.51891e-06 7.57538e-25)
(3.59999 -5.48016e-06 5.23097e-25)
(3.59999 -4.60688e-06 -5.22577e-25)
(3.59999 -3.87109e-06 2.45072e-26)
(3.59999 -3.25271e-06 2.02322e-26)
(3.59999 -2.7327e-06 2.44082e-25)
(3.59999 -2.29585e-06 -2.16367e-25)
(3.6 -1.9288e-06 9.37642e-26)
(3.6 -1.6213e-06 -9.16517e-26)
(3.6 -1.36254e-06 -4.76541e-26)
(3.6 -1.1452e-06 6.13012e-26)
(3.6 -9.61678e-07 0)
(3.6 -8.07565e-07 0)
(3.6 -6.77744e-07 0)
(3.6 -5.70251e-07 1.60088e-26)
(3.6 -4.79991e-07 -1.65748e-26)
(3.6 -4.02898e-07 1.58833e-27)
(3.6 -3.37734e-07 -8.86575e-27)
(3.6 -2.82761e-07 1.22345e-26)
(3.6 -2.36076e-07 -2.66234e-27)
(3.6 -1.96528e-07 0)
(3.6 -1.6271e-07 -9.6056e-28)
(3.6 -1.33837e-07 2.83948e-27)
(3.6 -1.08775e-07 -1.77391e-27)
(3.6 -8.71297e-08 6.44018e-28)
(3.6 -6.79038e-08 0)
(3.6 -5.08909e-08 -8.34617e-29)
(3.6 -3.52294e-08 8.33807e-29)
(3.6 -2.07991e-08 1.71321e-29)
(3.6 -6.82256e-09 0)
(3.46761 -0.284029 0)
(3.49146 -0.188935 2.42273e-21)
(3.5058 -0.119308 -2.41829e-21)
(3.52114 -0.0792806 -1.01628e-21)
(3.53609 -0.0539763 1.01442e-21)
(3.54841 -0.0377997 5.29911e-22)
(3.55826 -0.0271249 -8.50319e-22)
(3.56605 -0.0198382 3.20789e-22)
(3.57225 -0.0147056 0)
(3.57726 -0.0109311 4.0933e-23)
(3.58134 -0.00808655 -2.16099e-22)
(3.58468 -0.00627558 1.84556e-22)
(3.58739 -0.00495937 0)
(3.5896 -0.004197 -4.57442e-22)
(3.59144 -0.00367722 1.02307e-21)
(3.59292 -0.00288535 -5.42084e-22)
(3.59409 -0.00220219 2.24788e-23)
(3.59502 -0.00184748 -5.42734e-22)
(3.59582 -0.00150243 5.41766e-22)
(3.59653 -0.00123304 0)
(3.59711 -0.00103705 0)
(3.59759 -0.000899153 1.04451e-23)
(3.59799 -0.000829853 2.5463e-22)
(3.59831 -0.00072568 -4.50664e-22)
(3.59858 -0.000629438 1.98769e-22)
(3.59881 -0.000541333 1.42135e-22)
(3.599 -0.00046089 -1.37883e-22)
(3.59915 -0.000390549 0)
(3.59929 -0.00033008 -7.78451e-23)
(3.5994 -0.000278643 7.81814e-23)
(3.5995 -0.000235066 0)
(3.59957 -0.000198009 -4.55363e-23)
(3.59964 -0.000166704 4.54571e-23)
(3.5997 -0.000140264 0)
(3.59975 -0.000117953 0)
(3.59979 -9.9147e-05 0)
(3.59982 -8.33102e-05 5.90866e-25)
(3.59985 -6.99831e-05 0)
(3.59987 -5.87752e-05 -6.06968e-24)
(3.59989 -4.93528e-05 6.05925e-24)
(3.59991 -4.14359e-05 1.4639e-25)
(3.59992 -3.47855e-05 0)
(3.59994 -2.92006e-05 2.98215e-24)
(3.59995 -2.45112e-05 -5.26931e-24)
(3.59995 -2.05764e-05 2.25504e-24)
(3.59996 -1.7273e-05 1.68744e-25)
(3.59997 -1.45007e-05 0)
(3.59997 -1.21737e-05 -1.17272e-24)
(3.59998 -1.02202e-05 1.13354e-24)
(3.59998 -8.57998e-06 0)
(3.59998 -7.20303e-06 -6.22472e-25)
(3.59999 -6.0468e-06 6.43824e-25)
(3.59999 -5.07615e-06 4.55446e-25)
(3.59999 -4.25953e-06 -4.64298e-25)
(3.59999 -3.57429e-06 -1.01508e-26)
(3.59999 -2.9996e-06 -2.45955e-25)
(3.59999 -2.51767e-06 2.31639e-25)
(3.6 -2.11327e-06 -5.69486e-27)
(3.6 -1.7754e-06 1.44562e-25)
(3.6 -1.4913e-06 -1.42623e-25)
(3.6 -1.25183e-06 -6.215e-27)
(3.6 -1.04936e-06 -3.60105e-26)
(3.6 -8.80105e-07 9.10067e-27)
(3.6 -7.38283e-07 2.88001e-26)
(3.6 -6.20655e-07 1.26325e-27)
(3.6 -5.22591e-07 -2.0407e-27)
(3.6 -4.39679e-07 1.03546e-26)
(3.6 -3.69375e-07 -1.11544e-26)
(3.6 -3.09909e-07 0)
(3.6 -2.59308e-07 -3.6929e-28)
(3.6 -2.16295e-07 1.78327e-27)
(3.6 -1.79443e-07 -7.05462e-28)
(3.6 -1.47858e-07 -1.54453e-27)
(3.6 -1.20398e-07 1.86761e-28)
(3.6 -9.65679e-08 5.7345e-29)
(3.6 -7.53855e-08 -1.22123e-28)
(3.6 -5.65433e-08 2.17056e-28)
(3.6 -3.92055e-08 -7.32092e-29)
(3.6 -2.31584e-08 -9.50874e-30)
(3.6 -7.59479e-09 0)
(3.50831 -0.295931 4.25716e-21)
(3.50733 -0.225278 -4.24517e-21)
(3.5162 -0.145865 0)
(3.52637 -0.100832 0)
(3.53854 -0.0701841 1.0398e-21)
(3.54954 -0.0500248 -1.0369e-21)
(3.55877 -0.0364488 -3.44499e-22)
(3.56626 -0.0270702 3.43543e-22)
(3.57229 -0.0204046 0)
(3.57721 -0.0155561 0)
(3.58127 -0.0119773 2.99969e-23)
(3.58462 -0.00923514 -2.99146e-23)
(3.58731 -0.00719743 0)
(3.5895 -0.00566667 0)
(3.59129 -0.00453443 0)
(3.59273 -0.00382607 0)
(3.59393 -0.00325259 0)
(3.59497 -0.00277468 0)
(3.59584 -0.00212888 4.29848e-22)
(3.59651 -0.00169582 -4.28694e-22)
(3.59707 -0.00138763 0)
(3.59753 -0.00116632 0)
(3.59793 -0.00102709 2.48758e-22)
(3.59828 -0.000875928 -3.79561e-23)
(3.59856 -0.000744162 -2.09584e-22)
(3.59879 -0.000631069 0)
(3.59899 -0.000533327 -1.24921e-22)
(3.59915 -0.000450327 2.01904e-23)