/*--------------------------------*- C++ -*----------------------------------*\
  =========                 |
  \\      /  F ield         | OpenFOAM: The Open Source CFD Toolbox
   \\    /   O peration     | Website:  https://openfoam.org
    \\  /    A nd           | Version:  10
     \\/     M anipulation  |
\*---------------------------------------------------------------------------*/
FoamFile
{
    format      ascii;
    class       volVectorField;
    location    "6.4416e-05";
    object      U_0;
}
// * * * * * * * * * * * * * * * * * * * * * * * * * * * * * * * * * * * * * //

dimensions      [0 1 -1 0 0 0 0];

internalField   nonuniform List<vector> 
7600
(
(4.34338 -2.61361 -8.37141e-22)
(3.50421 -2.35534 -4.51271e-20)
(3.80363 -1.52234 -4.14612e-20)
(3.70705 -1.24502 -2.40548e-20)
(3.69713 -0.992781 8.17786e-21)
(3.68217 -0.818071 -1.52327e-20)
(3.673 -0.687715 0)
(3.66272 -0.594906 -1.28556e-20)
(3.67513 -0.518866 7.508e-21)
(3.60198 -0.51981 0)
(4.75372 -2.55639 3.79772e-20)
(3.87024 -2.30101 1.57386e-20)
(4.04016 -1.48584 4.26872e-20)
(3.89953 -1.21529 1.4916e-20)
(3.84955 -0.968997 1.55795e-20)
(3.80597 -0.798252 1.52346e-20)
(3.77396 -0.669587 0)
(3.74468 -0.575922 -8.02922e-21)
(3.73354 -0.48503 1.5367e-21)
(3.66344 -0.482743 -1.20685e-20)
(5.14697 -2.43246 -2.38839e-20)
(4.22151 -2.18816 0)
(4.26726 -1.41221 -4.53522e-20)
(4.08454 -1.15511 1.14101e-20)
(3.99624 -0.920833 -2.90076e-20)
(3.92563 -0.758242 5.97161e-21)
(3.87283 -0.635137 -1.51095e-20)
(3.82826 -0.544831 2.02901e-20)
(3.80334 -0.454432 -4.06588e-21)
(3.74138 -0.444832 3.42615e-20)
(5.51689 -2.24835 2.75355e-20)
(4.55186 -2.02164 0)
(4.48047 -1.30393 4.53575e-20)
(4.25825 -1.06646 -5.36321e-21)
(4.13405 -0.849875 8.01644e-21)
(4.0383 -0.699382 0)
(3.96641 -0.585018 6.27369e-21)
(3.90798 -0.500656 -5.85812e-21)
(3.87006 -0.415142 6.93664e-21)
(3.80956 -0.405789 -1.86011e-21)
(5.85353 -2.00802 -2.94178e-21)
(4.85238 -1.80498 -5.89058e-20)
(4.67426 -1.16342 2.57487e-20)
(4.41618 -0.951426 -3.74492e-21)
(4.25943 -0.75792 0)
(4.14102 -0.623342 -3.95252e-21)
(4.052 -0.520834 1.1419e-20)
(3.9813 -0.44497 -4.56215e-21)
(3.93149 -0.367793 -2.8706e-21)
(3.87183 -0.359009 -7.73394e-21)
(6.14881 -1.71754 -1.8408e-20)
(5.11566 -1.54351 5.68591e-20)
(4.84388 -0.994135 -1.63868e-20)
(4.55443 -0.812867 3.74544e-21)
(4.36923 -0.647304 0)
(4.23107 -0.532101 -2.94245e-21)
(4.12719 -0.444237 2.6865e-21)
(4.0458 -0.379127 -1.25073e-21)
(3.98551 -0.312859 1.98045e-21)
(3.92588 -0.305458 -3.20036e-21)
(6.39551 -1.38397 8.22344e-21)
(5.33506 -1.24351 0)
(4.98508 -0.800207 0)
(4.66951 -0.654189 3.19667e-22)
(4.46064 -0.520769 -8.80063e-22)
(4.3061 -0.427917 -9.60651e-22)
(4.18989 -0.357053 2.04614e-21)
(4.0996 -0.304522 0)
(4.03046 -0.251074 -1.05868e-21)
(3.9706 -0.245226 2.27137e-21)
(6.58775 -1.01538 2.48591e-21)
(5.50501 -0.91225 -2.10386e-21)
(5.0943 -0.58639 0)
(4.75849 -0.47929 -1.26823e-21)
(4.53132 -0.381428 2.11069e-21)
(4.36414 -0.313329 0)
(4.2384 -0.261341 -1.64858e-21)
(4.14123 -0.222804 2.08063e-23)
(4.06518 -0.18361 5.40127e-22)
(4.00502 -0.179393 -1.61989e-21)
(6.72042 -0.620463 0)
(5.62116 -0.55765 -9.45498e-22)
(5.16875 -0.357933 1.06206e-21)
(4.81908 -0.292479 3.28247e-23)
(4.57945 -0.232708 -3.81895e-22)
(4.40367 -0.191126 0)
(4.27146 -0.159376 1.22111e-22)
(4.16959 -0.135838 1.11933e-22)
(4.08881 -0.111906 0)
(4.02839 -0.109351 1.1947e-22)
(6.79321 -0.208834 1.1534e-36)
(5.68053 -0.188436 -2.4334e-22)
(5.2063 -0.120474 -2.66906e-22)
(4.8496 -0.0983771 9.40978e-23)
(4.6037 -0.0782694 -8.12237e-23)
(4.42362 -0.0642816 1.38709e-22)
(4.28816 -0.0535939 0)
(4.18394 -0.0456602 3.43384e-37)
(4.10078 -0.0375914 -1.39476e-22)
(4.04023 -0.0367092 1.03643e-23)
(1.52992 -0.208797 -8.86071e-22)
(0.97474 -0.188263 3.24718e-21)
(2.17004 -0.120393 -1.49354e-20)
(2.37187 -0.0982414 -1.71457e-21)
(2.63389 -0.0780232 -7.22281e-22)
(2.80844 -0.0639469 1.22929e-21)
(2.94199 -0.0532825 0)
(3.04492 -0.0450953 1.22948e-36)
(3.1249 -0.0386158 -3.6276e-22)
(3.19379 -0.0337446 8.32579e-22)
(1.59536 -0.614448 0)
(1.03289 -0.55202 6.42527e-21)
(2.20677 -0.355447 8.22736e-21)
(2.40216 -0.290391 -4.75131e-22)
(2.658 -0.23103 -5.86271e-21)
(2.82829 -0.189584 0)
(2.95856 -0.158124 3.8764e-21)
(3.05904 -0.133918 3.03791e-21)
(3.13652 -0.114797 0)
(3.20492 -0.100241 -4.94775e-22)
(1.72368 -1.00775 -1.21312e-20)
(1.1479 -0.905409 1.02618e-20)
(2.28046 -0.58336 0)
(2.46244 -0.476444 -1.29194e-20)
(2.706 -0.378997 2.02706e-20)
(2.86773 -0.310942 0)
(2.99147 -0.259283 -1.20584e-20)
(3.08707 -0.219476 2.88693e-21)
(3.15957 -0.188232 -1.1135e-20)
(3.22696 -0.163874 -3.70941e-21)
(1.91158 -1.37486 2.638e-20)
(1.3165 -1.23529 0)
(2.38884 -0.796464 0)
(2.55103 -0.65052 1.58495e-20)
(2.77655 -0.517509 -1.70299e-20)
(2.92573 -0.424565 4.76608e-21)
(3.03988 -0.353977 3.82994e-21)
(3.12833 -0.299438 0)
(3.19353 -0.257028 5.6489e-21)
(3.25938 -0.222697 3.70879e-21)
(2.15437 -1.70778 -5.18787e-20)
(1.53452 -1.53468 1.35392e-19)
(2.52924 -0.990022 -3.92332e-20)
(2.66576 -0.808673 1.00482e-20)
(2.86796 -0.643375 0)
(3.00092 -0.527798 9.96481e-21)
(3.10269 -0.439961 -9.09758e-21)
(3.18191 -0.371827 -1.61393e-20)
(3.23774 -0.319484 -6.42003e-21)
(3.30145 -0.274821 1.28365e-20)
(2.44583 -1.99817 5.4082e-20)
(1.7964 -1.79614 -1.31081e-19)
(2.6981 -1.15921 1.91499e-20)
(2.80376 -0.946997 -1.00462e-20)
(2.97795 -0.753512 0)
(3.09146 -0.618142 1.0328e-20)
(3.17846 -0.515168 9.73101e-21)
(3.24668 -0.434849 -9.44798e-21)
(3.29149 -0.374036 -1.88125e-20)
(3.35237 -0.318318 -1.6203e-20)
(2.77858 -2.23897 4.68113e-20)
(2.09559 -2.01338 0)
(2.89119 -1.29992 6.09503e-20)
(2.9616 -1.06215 -2.01721e-20)
(3.10379 -0.845291 3.36751e-20)
(3.19514 -0.693489 0)
(3.26544 -0.577902 -9.50323e-21)
(3.32132 -0.487098 8.34617e-21)
(3.35425 -0.41945 3.92886e-20)
(3.41155 -0.351538 -1.96526e-21)
(3.14419 -2.42438 -1.17674e-20)
(2.42465 -2.18131 -3.44672e-20)
(3.10374 -1.40884 -7.32204e-20)
(3.13534 -1.15142 1.94845e-20)
(3.24234 -0.916576 -4.58993e-20)
(3.30937 -0.752177 -1.04374e-20)
(3.36156 -0.626917 -2.96479e-20)
(3.40409 -0.527653 5.44697e-20)
(3.42548 -0.454977 -2.04759e-20)
(3.47768 -0.371076 3.56442e-20)
(3.53309 -2.54976 3.62396e-20)
(2.77488 -2.29547 -1.97766e-20)
(3.33027 -1.48308 8.29863e-20)
(3.32055 -1.21246 1.78063e-20)
(3.39001 -0.965588 2.25328e-20)
(3.43115 -0.792913 1.90067e-20)
(3.46441 -0.66135 0)
(3.49296 -0.556359 1.88039e-20)
(3.50651 -0.478362 -3.7445e-20)
(3.5525 -0.375684 -1.74786e-20)
(3.93622 -2.61278 -4.16245e-20)
(3.13957 -2.35538 1.84242e-20)
(3.56612 -1.52217 -8.18024e-20)
(3.51319 -1.24459 -7.74313e-21)
(3.54335 -0.991679 -9.00051e-21)
(3.55747 -0.815376 -1.90037e-20)
(3.57197 -0.681992 0)
(3.589 -0.577012 -1.74247e-20)
(3.60953 -0.504635 1.94756e-20)
(3.66225 -0.382922 0)
(3.29968 -0.022667 -9.60343e-24)
(3.40647 -0.0122356 1.45119e-23)
(3.46212 -0.00754487 0)
(3.49972 -0.00478591 0)
(3.5246 -0.003172 0)
(3.54208 -0.00212418 2.53859e-22)
(3.55484 -0.001417 -2.4153e-22)
(3.56451 -0.00104582 0)
(3.57189 -0.000805084 -1.76921e-22)
(3.57749 -0.000705294 1.99139e-22)
(3.58167 -0.000478743 0)
(3.58497 -0.000360807 0)
(3.58777 -0.000304607 0)
(3.59002 -0.000277609 0)
(3.59178 -0.000237966 0)
(3.59318 -0.000203075 -5.95425e-23)
(3.59431 -0.000169966 1.32948e-23)
(3.59525 -0.000142503 4.63812e-23)
(3.59602 -0.000119377 0)
(3.59666 -0.000100609 0)
(3.59719 -8.49185e-05 0)
(3.59764 -7.15042e-05 -1.80507e-24)
(3.59801 -5.9984e-05 0)
(3.59833 -5.04405e-05 0)
(3.59859 -4.24493e-05 0)
(3.59881 -3.57174e-05 0)
(3.599 -3.0051e-05 0)
(3.59915 -2.52793e-05 0)
(3.59929 -2.12637e-05 -2.43221e-24)
(3.5994 -1.7884e-05 3.84989e-24)
(3.59949 -1.50392e-05 -3.22895e-25)
(3.59957 -1.26418e-05 -1.39626e-24)
(3.59964 -1.06244e-05 0)
(3.59969 -8.92719e-06 0)
(3.59974 -7.49994e-06 0)
(3.59978 -6.29991e-06 -7.84433e-26)
(3.59982 -5.2912e-06 0)
(3.59984 -4.44338e-06 0)
(3.59987 -3.73103e-06 0)
(3.59989 -3.13253e-06 0)
(3.59991 -2.62976e-06 2.86484e-25)
(3.59992 -2.20739e-06 -2.52916e-25)
(3.59993 -1.85275e-06 0)
(3.59994 -1.55494e-06 1.01315e-25)
(3.59995 -1.3049e-06 -1.01447e-25)
(3.59996 -1.09491e-06 0)
(3.59997 -9.18686e-07 -7.49424e-26)
(3.59997 -7.70688e-07 7.50407e-26)
(3.59998 -6.46534e-07 1.6408e-26)
(3.59998 -5.42255e-07 0)
(3.59998 -4.54808e-07 -5.29561e-26)
(3.59999 -3.81367e-07 5.30259e-26)
(3.59999 -3.1981e-07 -4.52118e-26)
(3.59999 -2.68107e-07 4.52716e-26)
(3.59999 -2.24795e-07 0)
(3.59999 -1.88409e-07 -3.60861e-26)
(3.59999 -1.57955e-07 3.6134e-26)
(3.59999 -1.32356e-07 3.12061e-26)
(3.6 -1.10952e-07 -3.12476e-26)
(3.6 -9.29919e-08 2.70202e-26)
(3.6 -7.79236e-08 -1.44947e-26)
(3.6 -6.52335e-08 -1.25784e-26)
(3.6 -5.46344e-08 5.61646e-27)
(3.6 -4.57242e-08 0)
(3.6 -3.83779e-08 0)
(3.6 -3.19765e-08 0)
(3.6 -2.6964e-08 0)
(3.6 -2.26218e-08 -6.92393e-27)
(3.6 -1.89494e-08 6.93327e-27)
(3.6 -1.58512e-08 8.56886e-27)
(3.6 -1.31869e-08 -5.61679e-27)
(3.6 -1.09327e-08 -2.19914e-27)
(3.6 -9.01508e-09 4.11226e-27)
(3.6 -7.30848e-09 -1.91273e-27)
(3.6 -5.89251e-09 0)
(3.6 -4.5578e-09 0)
(3.6 -3.4441e-09 0)
(3.6 -2.36191e-09 0)
(3.6 -1.40164e-09 3.42405e-29)
(3.6 -4.22441e-10 -3.42875e-29)
(3.30495 -0.0676533 5.63192e-24)
(3.40917 -0.0366631 -2.87767e-24)
(3.46331 -0.0226447 2.74144e-24)
(3.50033 -0.0143938 1.53938e-22)
(3.52493 -0.00955073 -1.35994e-22)
(3.54228 -0.00641087 -1.2699e-23)
(3.55492 -0.00427645 3.1568e-23)
(3.56451 -0.00313689 6.41738e-22)
(3.57185 -0.00240722 -6.42492e-22)
(3.57748 -0.00204429 -7.1865e-22)
(3.5817 -0.00148048 7.39971e-22)
(3.58496 -0.00108613 -5.70155e-22)
(3.58775 -0.000898607 5.70828e-22)
(3.59 -0.000824436 0)
(3.59177 -0.000710546 -3.04999e-22)
(3.59317 -0.000607886 6.57281e-23)
(3.59431 -0.000509654 4.27017e-22)
(3.59524 -0.000427374 -1.77011e-22)
(3.59602 -0.000358119 -7.99296e-24)
(3.59666 -0.000301922 -8.65875e-23)
(3.59719 -0.000254909 1.971e-23)
(3.59764 -0.000214671 6.88736e-23)
(3.59801 -0.000180084 3.95859e-23)
(3.59833 -0.000151445 -9.39865e-24)
(3.59859 -0.00012746 -3.02708e-23)
(3.59881 -0.00010725 1.92015e-23)
(3.599 -9.02349e-05 -1.7935e-23)
(3.59915 -7.59057e-05 -1.10373e-23)
(3.59929 -6.38464e-05 2.55266e-24)
(3.5994 -5.36971e-05 8.80993e-24)
(3.59949 -4.5154e-05 0)
(3.59957 -3.79543e-05 0)
(3.59964 -3.1896e-05 -1.96533e-24)
(3.59969 -2.67996e-05 3.61349e-24)
(3.59974 -2.25139e-05 -1.64778e-24)
(3.59978 -1.89107e-05 7.87045e-26)
(3.59982 -1.58819e-05 0)
(3.59984 -1.33366e-05 -8.76261e-25)
(3.59987 -1.11979e-05 9.81485e-25)
(3.59989 -9.40123e-06 0)
(3.59991 -7.89192e-06 0)
(3.59992 -6.62413e-06 -3.40378e-26)
(3.59993 -5.55958e-06 -4.61176e-25)
(3.59994 -4.66576e-06 4.06524e-25)
(3.59995 -3.91527e-06 -3.70574e-25)
(3.59996 -3.28513e-06 3.7103e-25)
(3.59997 -2.75619e-06 0)
(3.59997 -2.31212e-06 0)
(3.59998 -1.93949e-06 -1.64459e-26)
(3.59998 -1.62666e-06 -2.32044e-25)
(3.59998 -1.36423e-06 1.88466e-26)
(3.59999 -1.14394e-06 4.10627e-25)
(3.59999 -9.59214e-07 -1.97122e-25)
(3.59999 -8.04162e-07 -2.19446e-26)
(3.59999 -6.74179e-07 0)
(3.59999 -5.65079e-07 7.24576e-26)
(3.59999 -4.73664e-07 -7.25479e-26)
(3.59999 -3.96922e-07 6.25945e-26)
(3.6 -3.32647e-07 -6.26727e-26)
(3.6 -2.78738e-07 0)
(3.6 -2.33679e-07 -1.30691e-26)
(3.6 -1.95802e-07 -4.66989e-26)
(3.6 -1.64161e-07 5.23809e-26)
(3.6 -1.37494e-07 0)
(3.6 -1.15201e-07 0)
(3.6 -9.6239e-08 -3.35172e-26)
(3.6 -8.0999e-08 3.35595e-26)
(3.6 -6.79672e-08 0)
(3.6 -5.69275e-08 0)
(3.6 -4.76087e-08 -2.9614e-27)
(3.6 -3.96389e-08 9.99073e-27)
(3.6 -3.28291e-08 -1.88043e-26)
(3.6 -2.70307e-08 5.28541e-27)
(3.6 -2.1954e-08 7.65405e-27)
(3.6 -1.76163e-08 0)
(3.6 -1.37035e-08 -2.42063e-27)
(3.6 -1.02924e-08 0)
(3.6 -7.10647e-09 0)
(3.6 -4.19736e-09 1.36984e-28)
(3.6 -1.36233e-09 -1.3716e-28)
(3.31538 -0.111575 5.16495e-24)
(3.41453 -0.0609533 -1.29471e-23)
(3.46569 -0.0377693 -4.85022e-23)
(3.50156 -0.0241088 4.12298e-23)
(3.52559 -0.016031 -1.37562e-23)
(3.54267 -0.0108086 -8.92466e-22)
(3.55509 -0.00725189 -1.85598e-22)
(3.56452 -0.00524456 1.06297e-21)
(3.57179 -0.00399693 7.16331e-23)
(3.57745 -0.00325534 7.14788e-23)
(3.58172 -0.00265483 -4.30607e-23)
(3.58496 -0.00183286 7.12579e-23)
(3.5877 -0.00144921 -8.67988e-22)
(3.58996 -0.00134602 9.82302e-22)
(3.59175 -0.00117134 4.25664e-23)
(3.59316 -0.00100777 -4.84804e-22)
(3.59431 -0.000848136 4.85307e-22)
(3.59524 -0.000711603 1.07541e-23)
(3.59601 -0.000596709 2.45748e-23)
(3.59666 -0.000503429 -1.28052e-23)
(3.59719 -0.000425303 -9.97387e-24)
(3.59764 -0.000358277 -7.76809e-24)
(3.59801 -0.000300558 -5.99803e-24)
(3.59833 -0.000252805 0)
(3.59859 -0.000212802 0)
(3.59881 -0.000179068 -1.29864e-24)
(3.599 -0.000150661 0)
(3.59915 -0.000126732 0)
(3.59929 -0.000106594 0)
(3.5994 -8.96437e-05 7.541e-24)
(3.59949 -7.53771e-05 -7.54894e-24)
(3.59957 -6.33528e-05 0)
(3.59964 -5.32354e-05 0)
(3.59969 -4.47252e-05 0)
(3.59974 -3.75691e-05 0)
(3.59978 -3.15533e-05 2.50933e-24)
(3.59982 -2.6497e-05 -3.65235e-25)
(3.59985 -2.2248e-05 -3.99777e-24)
(3.59987 -1.86783e-05 1.7459e-24)
(3.59989 -1.56799e-05 1.3967e-24)
(3.59991 -1.31611e-05 -1.73392e-25)
(3.59992 -1.10458e-05 -2.30617e-24)
(3.59993 -9.26961e-06 1.08122e-24)
(3.59994 -7.77859e-06 5.55171e-26)
(3.59995 -6.52668e-06 8.67343e-25)
(3.59996 -5.47574e-06 -1.45372e-24)
(3.59997 -4.59358e-06 6.89095e-25)
(3.59997 -3.85314e-06 0)
(3.59998 -3.2318e-06 0)
(3.59998 -2.71029e-06 -1.73918e-25)
(3.59998 -2.27276e-06 2.36463e-25)
(3.59999 -1.90563e-06 0)
(3.59999 -1.59771e-06 0)
(3.59999 -1.33936e-06 2.20284e-26)
(3.59999 -1.12272e-06 4.11238e-26)
(3.59999 -9.40983e-07 0)
(3.59999 -7.88643e-07 1.35597e-25)
(3.59999 -6.60842e-07 -9.78788e-27)
(3.6 -5.5372e-07 -9.56724e-26)
(3.6 -4.63882e-07 0)
(3.6 -3.88766e-07 -8.7925e-26)
(3.6 -3.25834e-07 1.01139e-25)
(3.6 -2.73207e-07 -1.12729e-26)
(3.6 -2.28914e-07 2.08069e-26)
(3.6 -1.91741e-07 0)
(3.6 -1.6032e-07 0)
(3.6 -1.34958e-07 0)
(3.6 -1.13244e-07 1.45606e-26)
(3.6 -9.48643e-08 2.50508e-26)
(3.6 -7.9271e-08 -2.60297e-27)
(3.6 -6.60562e-08 -4.25046e-26)
(3.6 -5.46706e-08 2.40602e-27)
(3.6 -4.5024e-08 1.35195e-26)
(3.6 -3.65799e-08 0)
(3.6 -2.93305e-08 -5.40564e-27)
(3.6 -2.28417e-08 7.83265e-27)
(3.6 -1.7143e-08 0)
(3.6 -1.18403e-08 1.07973e-27)
(3.6 -6.99961e-09 -1.08093e-27)
(3.6 -2.32013e-09 0)
(3.33073 -0.153651 -2.87584e-23)
(3.42247 -0.0849983 0)
(3.4693 -0.052915 -9.85602e-24)
(3.50341 -0.0339603 -2.76597e-22)
(3.52658 -0.0226585 2.5406e-22)
(3.54325 -0.0153759 6.16817e-24)
(3.55537 -0.0104503 -9.9878e-22)
(3.56457 -0.00735005 -1.65321e-22)
(3.57175 -0.00557493 9.77298e-22)
(3.57736 -0.00440014 -1.33617e-22)
(3.58173 -0.00392982 1.11588e-21)
(3.58501 -0.00258195 -2.29284e-21)
(3.58764 -0.0020165 1.87383e-21)
(3.58988 -0.00179413 -1.00053e-21)
(3.59171 -0.00160194 -4.32044e-23)
(3.59314 -0.00139533 -3.40754e-23)
(3.5943 -0.00118538 -2.72961e-23)
(3.59524 -0.000994265 2.87479e-22)
(3.59601 -0.000834562 -8.48117e-23)
(3.59665 -0.00070487 -2.28338e-22)
(3.59719 -0.000596137 -1.47134e-22)
(3.59764 -0.000502469 1.54679e-22)
(3.59802 -0.000421557 9.40321e-23)
(3.59833 -0.000354694 -1.55633e-22)
(3.59859 -0.000298653 1.54434e-23)
(3.59881 -0.000251337 5.22602e-23)
(3.599 -0.000211474 0)
(3.59916 -0.000177883 2.54479e-23)
(3.59929 -0.000149608 -4.58659e-23)
(3.5994 -0.000125809 2.04139e-23)
(3.59949 -0.000105778 -9.70821e-25)
(3.59957 -8.8893e-05 0)
(3.59964 -7.46871e-05 -9.16144e-24)
(3.5997 -6.2739e-05 1.62756e-23)
(3.59974 -5.26931e-05 -1.67829e-24)
(3.59978 -4.4249e-05 -6.83229e-24)
(3.59982 -3.71526e-05 2.32621e-24)
(3.59985 -3.11902e-05 -2.32813e-24)
(3.59987 -2.61815e-05 -1.72247e-24)
(3.59989 -2.19753e-05 2.28737e-25)
(3.59991 -1.84424e-05 1.49639e-24)
(3.59992 -1.54758e-05 1.14579e-24)
(3.59993 -1.29853e-05 -1.00833e-24)
(3.59994 -1.0895e-05 1.22136e-25)
(3.59995 -9.14017e-06 6.96511e-25)
(3.59996 -7.6673e-06 -8.00785e-25)
(3.59997 -6.43112e-06 8.66977e-26)
(3.59997 -5.39374e-06 0)
(3.59998 -4.52331e-06 7.07123e-26)
(3.59998 -3.79288e-06 4.22331e-25)
(3.59998 -3.18014e-06 -4.85445e-25)
(3.59999 -2.6661e-06 0)
(3.59999 -2.23499e-06 0)
(3.59999 -1.87336e-06 3.00607e-25)
(3.59999 -1.57015e-06 -3.87552e-25)
(3.59999 -1.31584e-06 0)
(3.59999 -1.10266e-06 0)
(3.59999 -9.23882e-07 -1.27119e-25)
(3.6 -7.74007e-07 -2.13148e-26)
(3.6 -6.48374e-07 1.46537e-25)
(3.6 -5.43315e-07 0)
(3.6 -4.55372e-07 0)
(3.6 -3.81705e-07 0)
(3.6 -3.19868e-07 -2.08749e-26)
(3.6 -2.67889e-07 7.35884e-26)
(3.6 -2.24303e-07 1.12285e-26)
(3.6 -1.88724e-07 -1.28657e-25)
(3.6 -1.58346e-07 -8.85538e-27)
(3.6 -1.3265e-07 5.56668e-26)
(3.6 -1.108e-07 0)
(3.6 -9.22871e-08 0)
(3.6 -7.64113e-08 0)
(3.6 -6.28801e-08 0)
(3.6 -5.11311e-08 1.3053e-26)
(3.6 -4.09645e-08 -1.30641e-26)
(3.6 -3.19397e-08 -4.31502e-27)
(3.6 -2.39376e-08 4.3187e-27)
(3.6 -1.65728e-08 -1.08026e-27)
(3.6 -9.79253e-09 1.08118e-27)
(3.6 -3.24387e-09 0)
(3.35068 -0.192958 2.94675e-23)
(3.43284 -0.10869 1.30724e-21)
(3.47417 -0.0680258 -1.38159e-21)
(3.50588 -0.0439844 -6.05245e-22)
(3.52791 -0.0294773 6.28835e-22)
(3.54401 -0.020157 -1.25872e-21)
(3.55581 -0.0139032 2.88684e-21)
(3.56471 -0.00952478 -1.5318e-21)
(3.5717 -0.0071719 0)
(3.5772 -0.00554158 1.84457e-21)
(3.5817 -0.00466983 -2.64825e-21)
(3.5851 -0.00362459 1.92939e-21)
(3.58758 -0.00263606 -9.47308e-22)
(3.5898 -0.002107 5.12171e-23)
(3.59164 -0.00197337 6.18954e-22)
(3.59311 -0.00175401 -8.53258e-23)
(3.59428 -0.00150863 -4.716e-22)
(3.59523 -0.00127189 0)
(3.59601 -0.00107035 0)
(3.59665 -0.000905266 0)
(3.59719 -0.000766899 1.07503e-23)
(3.59764 -0.000646998 0)
(3.59802 -0.000542967 9.53214e-23)
(3.59833 -0.000457117 -1.68962e-22)
(3.59859 -0.000385091 1.30765e-22)
(3.59881 -0.000324156 -5.71648e-23)
(3.599 -0.000272777 -3.54258e-23)
(3.59916 -0.000229454 7.16829e-24)
(3.59929 -0.000192977 5.10307e-23)
(3.5994 -0.000162266 -2.27526e-23)
(3.59949 -0.00013642 9.85528e-25)
(3.59957 -0.000114626 0)
(3.59964 -9.6292e-05 0)
(3.5997 -8.08734e-05 -6.08601e-26)
(3.59974 -6.79113e-05 4.64873e-25)
(3.59978 -5.70174e-05 3.9196e-25)
(3.59982 -4.78638e-05 0)
(3.59985 -4.01744e-05 0)
(3.59987 -3.3716e-05 0)
(3.59989 -2.82938e-05 3.25924e-24)
(3.59991 -2.37403e-05 -4.30807e-25)
(3.59992 -1.99174e-05 -2.66015e-24)
(3.59993 -1.67087e-05 2.0283e-24)
(3.59994 -1.40163e-05 -2.29285e-24)
(3.59995 -1.17564e-05 -7.32648e-25)
(3.59996 -9.86e-06 8.48851e-25)
(3.59997 -8.2687e-06 -7.65696e-25)
(3.59997 -6.9336e-06 1.37131e-24)
(3.59998 -5.8136e-06 -7.56372e-25)
(3.59998 -4.87392e-06 6.68256e-26)
(3.59998 -4.08582e-06 0)
(3.59999 -3.42479e-06 0)
(3.59999 -2.87051e-06 5.06138e-26)
(3.59999 -2.40566e-06 3.9893e-25)
(3.59999 -2.01597e-06 -2.7884e-26)
(3.59999 -1.68918e-06 -5.87037e-25)
(3.59999 -1.41531e-06 5.78721e-25)
(3.59999 -1.18567e-06 -5.35471e-25)
(3.6 -9.93168e-07 2.57492e-25)
(3.6 -8.31816e-07 -2.86172e-26)
(3.6 -6.9707e-07 0)
(3.6 -5.84192e-07 2.46248e-26)
(3.6 -4.89644e-07 -8.74279e-26)
(3.6 -4.10262e-07 8.74726e-26)
(3.6 -3.43489e-07 -1.92846e-26)
(3.6 -2.88164e-07 4.98682e-26)
(3.6 -2.42219e-07 -6.75524e-26)
(3.6 -2.03215e-07 5.57859e-26)
(3.6 -1.70233e-07 -1.06161e-25)
(3.6 -1.42143e-07 1.07448e-25)
(3.6 -1.18396e-07 -4.51793e-26)
(3.6 -9.80157e-08 0)
(3.6 -8.06662e-08 2.36239e-26)
(3.6 -6.55858e-08 -1.53643e-26)
(3.6 -5.25549e-08 -1.084e-26)
(3.6 -4.09717e-08 1.57068e-26)
(3.6 -3.07137e-08 0)
(3.6 -2.12616e-08 -1.60875e-27)
(3.6 -1.25601e-08 8.28585e-28)
(3.6 -4.15603e-09 -2.73667e-28)
(3.3748 -0.228389 -9.79219e-23)
(3.44542 -0.131927 -2.08778e-21)
(3.48034 -0.0830721 2.17432e-21)
(3.50899 -0.0542041 0)
(3.52958 -0.0365608 -2.64325e-23)
(3.54494 -0.0251902 0)
(3.55639 -0.0176038 -1.31683e-21)
(3.56496 -0.0121906 2.76138e-21)
(3.5717 -0.00873075 -1.40392e-21)
(3.57713 -0.00670674 -1.40113e-21)
(3.58154 -0.0051883 1.42518e-21)
(3.58506 -0.00460997 0)
(3.58765 -0.0033545 1.52204e-21)
(3.58971 -0.0025157 -1.56416e-21)
(3.59152 -0.00208747 -1.21898e-21)
(3.59305 -0.00203828 2.46426e-22)
(3.59426 -0.00179749 1.03396e-21)
(3.59522 -0.00154164 0)
(3.596 -0.00129915 1.92499e-23)
(3.59664 -0.00110066 4.30623e-22)
(3.59718 -0.000936246 -4.30664e-22)
(3.59764 -0.000791548 9.81676e-24)
(3.59802 -0.000664617 -1.04954e-22)
(3.59833 -0.000559971 2.95208e-23)
(3.59859 -0.000472108 1.78598e-23)
(3.59881 -0.000397567 1.34569e-23)
(3.599 -0.000334634 5.01295e-23)
(3.59916 -0.000281514 -2.34527e-24)
(3.59929 -0.000236745 0)
(3.5994 -0.000199069 1.53484e-24)
(3.59949 -0.000167355 1.71142e-23)
(3.59957 -0.000140602 -3.11966e-23)
(3.59964 -0.000118095 1.32346e-23)
(3.5997 -9.91677e-05 -9.07615e-24)
(3.59974 -8.32566e-05 1.84124e-23)
(3.59978 -6.98857e-05 -1.49574e-23)
(3.59982 -5.86526e-05 1.05417e-24)
(3.59985 -4.92179e-05 8.66785e-25)
(3.59987 -4.12954e-05 4.91537e-24)
(3.59989 -3.46442e-05 3.60589e-24)
(3.59991 -2.90609e-05 -3.60624e-24)
(3.59992 -2.43751e-05 -1.73866e-25)
(3.59993 -2.0443e-05 0)
(3.59994 -1.71449e-05 0)
(3.59995 -1.4377e-05 -1.93771e-24)
(3.59996 -1.20551e-05 1.82057e-24)
(3.59997 -1.01071e-05 0)
(3.59997 -8.47318e-06 -1.37052e-24)
(3.59998 -7.10289e-06 1.36238e-24)
(3.59998 -5.95347e-06 -6.75774e-26)
(3.59998 -4.98972e-06 -4.75324e-25)
(3.59999 -4.18156e-06 4.7537e-25)
(3.59999 -3.50408e-06 3.44516e-25)
(3.59999 -2.93604e-06 -3.95675e-25)
(3.59999 -2.45995e-06 -3.3307e-25)
(3.59999 -2.0608e-06 -1.31899e-26)
(3.59999 -1.72637e-06 2.38416e-26)
(3.59999 -1.44601e-06 2.82862e-25)
(3.6 -1.21102e-06 0)
(3.6 -1.01424e-06 2.23471e-25)
(3.6 -8.49992e-07 -2.23492e-25)
(3.6 -7.12274e-07 -2.47788e-26)
(3.6 -5.96897e-07 0)
(3.6 -4.9993e-07 0)
(3.6 -4.18337e-07 -1.28996e-25)
(3.6 -3.51868e-07 1.48392e-25)
(3.6 -2.9543e-07 0)
(3.6 -2.47855e-07 0)
(3.6 -2.07588e-07 -5.05261e-26)
(3.6 -1.73319e-07 3.85767e-26)
(3.6 -1.44344e-07 4.03015e-26)
(3.6 -1.19492e-07 -4.03054e-26)
(3.6 -9.83372e-08 -8.28121e-27)
(3.6 -7.99493e-08 1.31036e-26)
(3.6 -6.4065e-08 -2.24568e-27)
(3.6 -4.99439e-08 -1.57234e-26)
(3.6 -3.74414e-08 0)
(3.6 -2.59198e-08 2.68828e-27)
(3.6 -1.53085e-08 -2.18141e-27)
(3.6 -5.06155e-09 5.46553e-28)
(3.40261 -0.258525 4.27756e-21)
(3.45986 -0.154084 -4.17407e-21)
(3.48784 -0.0978081 8.42221e-23)
(3.51273 -0.0644377 -1.08102e-21)
(3.53159 -0.0437884 2.01477e-21)
(3.54606 -0.0304034 -9.11133e-22)
(3.55705 -0.0215006 0)
(3.56538 -0.0152905 0)
(3.57182 -0.0106978 -4.20509e-23)
(3.57707 -0.0078332 1.033e-21)
(3.58139 -0.00604055 -1.11081e-21)
(3.58493 -0.00496661 1.10361e-21)
(3.58766 -0.00409177 -1.10316e-21)
(3.58973 -0.00316075 4.33216e-23)
(3.59142 -0.00223746 0)
(3.59291 -0.00203604 -3.43542e-23)
(3.5942 -0.00193203 -2.87211e-23)
(3.59519 -0.00177154 0)
(3.59599 -0.00152302 -1.98171e-23)
(3.59664 -0.00129264 0)
(3.59718 -0.00109513 0)
(3.59764 -0.000926712 -1.00907e-23)
(3.59802 -0.000780672 0)
(3.59833 -0.000660205 -1.28652e-23)
(3.59859 -0.000557932 -1.4337e-22)
(3.59882 -0.000470462 2.52884e-22)
(3.599 -0.000396387 -2.26944e-23)
(3.59916 -0.000333683 -8.85713e-23)
(3.59929 -0.000280714 -2.96925e-23)
(3.5994 -0.000236104 2.8109e-23)
(3.5995 -0.000198517 0)
(3.59957 -0.000166781 1.62421e-23)
(3.59964 -0.000140072 -1.93978e-24)
(3.5997 -0.000117604 -1.3424e-23)
(3.59975 -9.87157e-05 -5.99045e-25)
(3.59978 -8.28424e-05 0)
(3.59982 -6.95082e-05 -4.73611e-25)
(3.59985 -5.83104e-05 5.56387e-24)
(3.59987 -4.89094e-05 -8.33169e-25)
(3.59989 -4.10177e-05 -6.89445e-25)
(3.59991 -3.43958e-05 -4.03545e-24)
(3.59992 -2.88404e-05 0)
(3.59993 -2.41801e-05 -2.58713e-24)
(3.59995 -2.02716e-05 2.58609e-24)
(3.59995 -1.69931e-05 0)
(3.59996 -1.42444e-05 1.73659e-24)
(3.59997 -1.1939e-05 -3.27317e-24)
(3.59997 -1.0006e-05 1.53667e-24)
(3.59998 -8.38536e-06 8.26756e-26)
(3.59998 -7.02638e-06 0)
(3.59998 -5.88726e-06 0)
(3.59999 -4.93239e-06 0)
(3.59999 -4.13214e-06 -8.1904e-25)
(3.59999 -3.4614e-06 8.1871e-25)
(3.59999 -2.89937e-06 0)
(3.59999 -2.42835e-06 3.13916e-25)
(3.59999 -2.03377e-06 -6.29532e-26)
(3.59999 -1.70312e-06 -2.26091e-26)
(3.6 -1.42583e-06 -2.65838e-25)
(3.6 -1.1937e-06 0)
(3.6 -1.00014e-06 0)
(3.6 -8.38169e-07 0)
(3.6 -7.02412e-07 0)
(3.6 -5.88207e-07 -1.62807e-25)
(3.6 -4.92041e-07 1.82215e-25)
(3.6 -4.1439e-07 0)
(3.6 -3.47819e-07 0)
(3.6 -2.91665e-07 0)
(3.6 -2.44271e-07 5.07417e-26)
(3.6 -2.03922e-07 -5.07214e-26)
(3.6 -1.69803e-07 0)
(3.6 -1.40581e-07 0)
(3.6 -1.15674e-07 -8.30923e-27)
(3.6 -9.40729e-08 0)
(3.6 -7.53626e-08 0)
(3.6 -5.87814e-08 0)
(3.6 -4.40455e-08 -3.24252e-27)
(3.6 -3.052e-08 3.24123e-27)
(3.6 -1.80261e-08 0)
(3.6 -5.95383e-09 0)
(3.43398 -0.282527 -1.51621e-22)
(3.47571 -0.177387 1.51401e-22)
(3.49658 -0.113391 -8.80627e-23)
(3.51713 -0.07569 1.68631e-21)
(3.53394 -0.0519288 -1.64735e-21)
(3.54734 -0.0363936 -3.22441e-23)
(3.55777 -0.0259962 -9.38575e-22)
(3.56584 -0.0188353 9.37597e-22)
(3.57212 -0.0135754 0)
(3.57711 -0.00967954 -7.8611e-22)
(3.58129 -0.00702563 8.07083e-22)
(3.58478 -0.00541425 -1.83766e-23)
(3.58752 -0.00458659 0)
(3.58974 -0.00376127 -1.04137e-21)
(3.59143 -0.00324574 2.07396e-21)
(3.59279 -0.00230824 -1.43159e-22)
(3.59406 -0.00194578 -9.38217e-22)
(3.59512 -0.00165516 0)
(3.59596 -0.00158166 6.03257e-22)
(3.59662 -0.0014462 -6.02637e-22)
(3.59717 -0.00127505 0)
(3.59763 -0.00110083 -1.16401e-23)
(3.59801 -0.000918627 -9.38475e-24)
(3.59833 -0.000768886 6.93518e-24)
(3.59859 -0.000648197 5.93705e-24)
(3.59882 -0.000546142 1.35047e-22)
(3.599 -0.000460093 -2.39571e-22)
(3.59916 -0.000387332 1.05023e-22)
(3.59929 -0.000325881 -2.53027e-24)
(3.5994 -0.000274107 2.06265e-24)
(3.5995 -0.000230478 0)
(3.59958 -0.000193622 0)
(3.59964 -0.000162601 0)
(3.5997 -0.000136504 0)
(3.59975 -0.000114563 -1.07809e-23)
(3.59979 -9.61246e-05 1.76314e-24)
(3.59982 -8.0637e-05 8.9377e-24)
(3.59985 -6.76322e-05 6.36025e-24)
(3.59987 -5.6716e-05 -9.77028e-25)
(3.59989 -4.75543e-05 -5.37139e-24)
(3.59991 -3.98682e-05 0)
(3.59992 -3.3421e-05 0)
(3.59994 -2.80139e-05 0)
(3.59995 -2.34792e-05 -2.48187e-24)
(3.59995 -1.96773e-05 2.629e-24)
(3.59996 -1.64899e-05 -2.01642e-24)
(3.59997 -1.38178e-05 3.54288e-24)
(3.59997 -1.15784e-05 -1.55687e-24)
(3.59998 -9.70137e-06 -1.38682e-24)
(3.59998 -8.12762e-06 1.37678e-25)
(3.59998 -6.80878e-06 1.16265e-24)
(3.59999 -5.70348e-06 9.41765e-25)
(3.59999 -4.77737e-06 -9.40829e-25)
(3.59999 -4.00128e-06 5.12221e-26)
(3.59999 -3.3511e-06 4.65315e-26)
(3.59999 -2.8063e-06 6.45258e-25)
(3.59999 -2.35001e-06 -5.67588e-25)
(3.6 -1.96781e-06 3.07053e-25)
(3.6 -1.64885e-06 -3.03878e-25)
(3.6 -1.38144e-06 -1.99995e-25)
(3.6 -1.15743e-06 2.57255e-25)
(3.6 -9.68998e-07 0)
(3.6 -8.11107e-07 0)
(3.6 -6.78718e-07 0)
(3.6 -5.70042e-07 1.30575e-25)
(3.6 -4.79666e-07 -1.32125e-25)
(3.6 -4.02481e-07 1.63408e-26)
(3.6 -3.37367e-07 -1.13134e-25)
(3.6 -2.82414e-07 1.64035e-25)
(3.6 -2.35805e-07 -3.88977e-26)
(3.6 -1.96277e-07 0)
(3.6 -1.6253e-07 -2.62094e-26)
(3.6 -1.33665e-07 8.33498e-26)
(3.6 -1.08673e-07 -6.4466e-26)
(3.6 -8.70241e-08 2.63284e-26)
(3.6 -6.78562e-08 0)
(3.6 -5.08297e-08 -6.49422e-27)
(3.6 -3.52175e-08 6.48792e-27)
(3.6 -2.07718e-08 1.62946e-27)
(3.6 -6.84948e-09 0)
(3.4671 -0.288831 0)
(3.49234 -0.190043 5.04664e-21)
(3.50686 -0.123321 -5.03738e-21)
(3.52229 -0.0824279 -2.21616e-21)
(3.53675 -0.0567182 2.2121e-21)
(3.54889 -0.0399324 1.06434e-21)
(3.55864 -0.028705 -1.88757e-21)
(3.56634 -0.0210095 8.23669e-22)
(3.57245 -0.0155281 0)
(3.57736 -0.0114136 5.17999e-22)
(3.58135 -0.00820987 -1.03562e-21)
(3.58465 -0.00617728 5.14074e-22)
(3.58737 -0.00472496 0)
(3.58953 -0.00379703 -5.77868e-22)
(3.59137 -0.00336032 1.23877e-21)
(3.59288 -0.0024588 -6.34046e-22)
(3.59405 -0.001921 2.51649e-23)
(3.59504 -0.00165109 -6.71699e-22)
(3.59585 -0.00145675 6.70501e-22)
(3.59656 -0.00124708 0)
(3.59714 -0.00107458 0)
(3.59762 -0.000947167 1.20928e-23)
(3.59802 -0.000885089 2.95475e-22)
(3.59833 -0.000782803 -5.15539e-22)
(3.59859 -0.000682269 2.23751e-22)
(3.59882 -0.000588208 1.49282e-22)
(3.599 -0.000503259 -1.4505e-22)
(3.59916 -0.000428137 0)
(3.59929 -0.000362812 -7.78089e-23)
(3.59941 -0.00030671 7.81532e-23)
(3.5995 -0.000258816 0)
(3.59958 -0.000217919 -4.42056e-23)
(3.59964 -0.000183258 4.41287e-23)
(3.5997 -0.000153961 0)
(3.59975 -0.000129248 0)
(3.59979 -0.000108435 0)
(3.59982 -9.09279e-05 5.59894e-25)
(3.59985 -7.6217e-05 0)
(3.59987 -6.38656e-05 -6.13345e-24)
(3.59989 -5.3501e-05 6.12291e-24)
(3.59991 -4.48091e-05 1.56393e-25)
(3.59992 -3.75227e-05 0)
(3.59994 -3.14169e-05 3.30473e-24)
(3.59995 -2.63013e-05 -5.92804e-24)
(3.59995 -2.20165e-05 2.58399e-24)
(3.59996 -1.84272e-05 2.04184e-25)
(3.59997 -1.54224e-05 0)
(3.59997 -1.2907e-05 -1.62143e-24)
(3.59998 -1.08014e-05 1.5711e-24)
(3.59998 -9.03861e-06 0)
(3.59998 -7.56324e-06 -1.06256e-24)
(3.59999 -6.32829e-06 1.0979e-24)
(3.59999 -5.2948e-06 9.1728e-25)
(3.59999 -4.42979e-06 -9.38078e-25)
(3.59999 -3.70598e-06 -2.3035e-26)
(3.59999 -3.10021e-06 -6.62899e-25)
(3.59999 -2.59342e-06 6.2252e-25)
(3.6 -2.16943e-06 -1.77294e-26)
(3.6 -1.81584e-06 5.40421e-25)
(3.6 -1.51971e-06 -5.36883e-25)
(3.6 -1.27125e-06 -2.78296e-26)
(3.6 -1.06255e-06 -1.96177e-25)
(3.6 -8.88351e-07 2.75877e-26)
(3.6 -7.42925e-07 1.79733e-25)
(3.6 -6.23416e-07 9.87593e-27)
(3.6 -5.24546e-07 -1.80406e-26)
(3.6 -4.41049e-07 1.17301e-25)
(3.6 -3.70398e-07 -1.25314e-25)
(3.6 -3.10634e-07 0)
(3.6 -2.59855e-07 -6.05211e-27)
(3.6 -2.16667e-07 4.07867e-26)
(3.6 -1.79727e-07 -9.64013e-27)
(3.6 -1.48033e-07 -4.41484e-26)
(3.6 -1.20546e-07 7.16937e-27)
(3.6 -9.66455e-08 3.01661e-27)
(3.6 -7.54631e-08 -8.69722e-27)
(3.6 -5.65717e-08 1.70816e-26)
(3.6 -3.92447e-08 -6.48857e-27)
(3.6 -2.31618e-08 -8.13503e-28)
(3.6 -7.63007e-09 0)
(3.50699 -0.305537 7.82295e-21)
(3.50806 -0.224872 -7.80092e-21)
(3.51698 -0.149249 0)
(3.52776 -0.10341 0)
(3.53945 -0.0726919 2.69527e-21)
(3.55026 -0.052073 -2.68774e-21)
(3.55932 -0.0380733 -1.31239e-21)
(3.56667 -0.0283839 1.30875e-21)
(3.57259 -0.0214794 0)
(3.57742 -0.016418 0)
(3.58137 -0.0126247 4.21114e-22)
(3.58465 -0.00967453 -4.19958e-22)
(3.58733 -0.00748154 0)
(3.58944 -0.00591906 0)
(3.59125 -0.00465304 0)
(3.59275 -0.00386187 0)
(3.59393 -0.00317582 0)
(3.59497 -0.00268225 0)
(3.59584 -0.00210066 5.02032e-22)
(3.59653 -0.00168257 -5.00684e-22)
(3.5971 -0.00138756 0)
(3.59756 -0.00118315 0)
(3.59796 -0.00106081 3.0271e-22)
(3.5983 -0.000914891 -4.75867e-23)
(3.59858 -0.000783034 -2.53646e-22)
(3.59881 -0.000667244 0)
(3.599 -0.000566551 -1.3998e-22)
(3.59916 -0.000479992 2.49818e-23)