/*--------------------------------*- C++ -*----------------------------------*\
  =========                 |
  \\      /  F ield         | OpenFOAM: The Open Source CFD Toolbox
   \\    /   O peration     | Website:  https://openfoam.org
    \\  /    A nd           | Version:  10
     \\/     M anipulation  |
\*---------------------------------------------------------------------------*/
FoamFile
{
    format      ascii;
    class       volScalarField;
    location    "2.64e-05";
    object      nut;
}
// * * * * * * * * * * * * * * * * * * * * * * * * * * * * * * * * * * * * * //

dimensions      [0 2 -1 0 0 0 0];

internalField   nonuniform List<scalar> 
7600
(
0.000394635
0.00069391
0.000718735
0.00114713
0.00159996
0.00214709
0.00281965
0.00371504
0.00647888
0.0044455
0.000406395
0.0006535
0.000728599
0.00114837
0.00159737
0.00213174
0.00275418
0.0034359
0.00462274
0.00383693
0.000419653
0.000619304
0.000739312
0.0011495
0.00159286
0.0021118
0.00269461
0.00329517
0.00427689
0.00396031
0.000433196
0.000590387
0.000749788
0.00115022
0.0015886
0.0020972
0.00266135
0.00324266
0.00417295
0.00413126
0.000446782
0.000565944
0.000760047
0.00115122
0.00158656
0.00209075
0.0026509
0.00323987
0.00415199
0.0043055
0.000459926
0.000545377
0.000769869
0.00115268
0.00158696
0.00209092
0.00265508
0.00326181
0.00415499
0.00446463
0.00047198
0.000528106
0.000778886
0.00115462
0.00158895
0.00209476
0.00266672
0.00329319
0.00415961
0.00459863
0.000482163
0.000513806
0.000787115
0.00115689
0.00159161
0.00210043
0.00268058
0.00332424
0.0041577
0.0047024
0.000490144
0.000502066
0.000794336
0.00115911
0.00159457
0.0021064
0.00269254
0.00334894
0.00414719
0.00477385
0.000494691
0.000492227
0.000799816
0.00116058
0.00159703
0.00211053
0.00269982
0.00336345
0.00412791
0.00481279
0.000330905
0.00124194
0.000646555
0.0011057
0.00154385
0.00205417
0.00263079
0.00326638
0.00393297
0.00497881
0.00033287
0.00122602
0.000649303
0.00110827
0.00154676
0.00205758
0.00263499
0.00327264
0.00392283
0.00497255
0.000335265
0.00117534
0.000651944
0.00110964
0.00154867
0.00206042
0.00263956
0.0032817
0.00389994
0.00495857
0.000339024
0.00111205
0.0006563
0.00111245
0.00155219
0.00206514
0.00264619
0.00329335
0.00386391
0.00493606
0.000343975
0.0010417
0.000662006
0.00111607
0.00155671
0.00207091
0.00265325
0.00330473
0.00381178
0.00490025
0.000350184
0.000970722
0.000669017
0.00112044
0.00156225
0.00207766
0.00266038
0.00331308
0.00373857
0.0048396
0.000357715
0.000903184
0.000677207
0.00112547
0.00156881
0.002086
0.00266872
0.00331746
0.00363958
0.00473386
0.00036664
0.000841361
0.000686439
0.00113106
0.00157655
0.00209733
0.00268257
0.00332432
0.00351315
0.00455162
0.000376929
0.000785788
0.000696324
0.00113637
0.00158482
0.00211331
0.00271067
0.00335943
0.00336805
0.0042291
0.000388828
0.000738793
0.000707433
0.0011422
0.00159401
0.00213384
0.0027666
0.00351453
0.0033471
0.00434377
0.00684976
0.00925824
0.0118701
0.0139813
0.0156054
0.0168184
0.0177171
0.0183852
0.0188874
0.019268
0.019568
0.019797
0.0199781
0.0201231
0.0202397
0.0203341
0.0204111
0.0204744
0.0205266
0.0205698
0.0206058
0.0206357
0.0206608
0.0206818
0.0206994
0.0207142
0.0207267
0.0207372
0.020746
0.0207535
0.0207598
0.0207651
0.0207696
0.0207734
0.0207767
0.0207794
0.0207816
0.0207836
0.0207852
0.0207866
0.0207877
0.0207887
0.0207895
0.0207902
0.0207907
0.0207912
0.0207916
0.020792
0.0207923
0.0207925
0.0207927
0.0207929
0.020793
0.0207931
0.0207931
0.0207932
0.0207932
0.0207932
0.0207932
0.0207932
0.0207932
0.0207932
0.0207932
0.0207932
0.0207933
0.0207933
0.0207933
0.0207933
0.0207933
0.0207934
0.0207934
0.0207934
0.0207934
0.0207934
0.0207934
0.0207934
0.0207932
0.0207913
0.0207895
0.0207851
0.00688437
0.00922192
0.0118522
0.0139603
0.0155857
0.0168012
0.0177027
0.0183737
0.018878
0.0192622
0.019559
0.0197917
0.0199736
0.0201194
0.0202368
0.0203317
0.0204091
0.0204727
0.0205252
0.0205687
0.0206049
0.020635
0.0206602
0.0206813
0.020699
0.0207139
0.0207264
0.020737
0.0207459
0.0207534
0.0207597
0.0207651
0.0207696
0.0207734
0.0207766
0.0207793
0.0207816
0.0207835
0.0207852
0.0207865
0.0207877
0.0207887
0.0207895
0.0207902
0.0207907
0.0207912
0.0207916
0.020792
0.0207923
0.0207925
0.0207927
0.0207929
0.020793
0.0207931
0.0207931
0.0207932
0.0207932
0.0207932
0.0207932
0.0207932
0.0207932
0.0207932
0.0207932
0.0207932
0.0207933
0.0207933
0.0207933
0.0207933
0.0207933
0.0207934
0.0207934
0.0207934
0.0207934
0.0207934
0.0207934
0.0207934
0.0207932
0.0207913
0.0207895
0.0207851
0.00695664
0.00915145
0.0118176
0.0139192
0.0155467
0.016767
0.017674
0.0183502
0.0188589
0.0192479
0.0195408
0.0197806
0.0199646
0.0201121
0.0202309
0.0203268
0.0204051
0.0204695
0.0205226
0.0205665
0.0206031
0.0206335
0.020659
0.0206803
0.0206982
0.0207132
0.0207259
0.0207365
0.0207455
0.0207531
0.0207595
0.0207649
0.0207694
0.0207733
0.0207765
0.0207792
0.0207815
0.0207835
0.0207851
0.0207865
0.0207877
0.0207886
0.0207895
0.0207901
0.0207907
0.0207912
0.0207916
0.020792
0.0207923
0.0207925
0.0207927
0.0207929
0.020793
0.0207931
0.0207931
0.0207932
0.0207932
0.0207932
0.0207932
0.0207932
0.0207932
0.0207932
0.0207932
0.0207932
0.0207933
0.0207933
0.0207933
0.0207933
0.0207933
0.0207934
0.0207934
0.0207934
0.0207934
0.0207934
0.0207934
0.0207934
0.0207932
0.0207913
0.0207896
0.0207851
0.00707222
0.00905134
0.0117686
0.0138597
0.0154896
0.0167164
0.0176309
0.0183146
0.0188299
0.0192246
0.0195225
0.0197608
0.019951
0.0201009
0.0202218
0.0203194
0.020399
0.0204644
0.0205184
0.0205631
0.0206003
0.0206312
0.0206571
0.0206788
0.0206969
0.0207122
0.020725
0.0207358
0.0207449
0.0207526
0.0207591
0.0207646
0.0207692
0.0207731
0.0207763
0.0207791
0.0207814
0.0207834
0.0207851
0.0207865
0.0207876
0.0207886
0.0207894
0.0207901
0.0207907
0.0207912
0.0207916
0.020792
0.0207922
0.0207925
0.0207927
0.0207929
0.020793
0.0207931
0.0207931
0.0207932
0.0207932
0.0207932
0.0207932
0.0207932
0.0207932
0.0207932
0.0207932
0.0207932
0.0207933
0.0207933
0.0207933
0.0207933
0.0207933
0.0207934
0.0207934
0.0207934
0.0207934
0.0207934
0.0207934
0.0207934
0.0207932
0.0207913
0.0207896
0.0207851
0.00723801
0.00892816
0.0117084
0.0137843
0.015416
0.0166502
0.0175739
0.0182668
0.0187909
0.0191919
0.0195037
0.0197348
0.0199312
0.0200855
0.0202094
0.0203092
0.0203906
0.0204576
0.0205128
0.0205585
0.0205965
0.0206282
0.0206546
0.0206767
0.0206952
0.0207108
0.0207239
0.0207349
0.0207442
0.020752
0.0207586
0.0207642
0.0207688
0.0207728
0.0207761
0.0207789
0.0207813
0.0207833
0.020785
0.0207864
0.0207876
0.0207886
0.0207894
0.0207901
0.0207907
0.0207912
0.0207916
0.0207919
0.0207922
0.0207925
0.0207927
0.0207929
0.020793
0.0207931
0.0207931
0.0207932
0.0207932
0.0207932
0.0207932
0.0207932
0.0207932
0.0207932
0.0207932
0.0207932
0.0207933
0.0207933
0.0207933
0.0207933
0.0207933
0.0207933
0.0207934
0.0207934
0.0207934
0.0207934
0.0207934
0.0207934
0.0207932
0.0207913
0.0207896
0.0207852
0.00745759
0.00879095
0.0116397
0.0136963
0.0153283
0.0165697
0.0175034
0.0182067
0.0187406
0.0191495
0.0194713
0.0197122
0.0199047
0.0200632
0.0201931
0.020296
0.0203797
0.0204487
0.0205056
0.0205526
0.0205917
0.0206242
0.0206513
0.020674
0.020693
0.020709
0.0207224
0.0207337
0.0207432
0.0207512
0.020758
0.0207636
0.0207684
0.0207725
0.0207759
0.0207787
0.0207811
0.0207832
0.0207849
0.0207863
0.0207875
0.0207885
0.0207894
0.0207901
0.0207907
0.0207912
0.0207916
0.0207919
0.0207922
0.0207925
0.0207927
0.0207929
0.020793
0.0207931
0.0207931
0.0207932
0.0207932
0.0207932
0.0207932
0.0207932
0.0207932
0.0207932
0.0207932
0.0207932
0.0207933
0.0207933
0.0207933
0.0207933
0.0207933
0.0207933
0.0207934
0.0207934
0.0207934
0.0207934
0.0207934
0.0207934
0.0207932
0.0207913
0.0207896
0.0207852
0.00771443
0.00865119
0.0115646
0.0135995
0.0152294
0.0164764
0.0174197
0.0181339
0.0186786
0.0190976
0.0194247
0.0196851
0.0198796
0.0200389
0.020168
0.0202773
0.0203656
0.0204374
0.0204964
0.0205451
0.0205855
0.0206192
0.0206472
0.0206707
0.0206903
0.0207068
0.0207206
0.0207322
0.020742
0.0207502
0.0207572
0.020763
0.0207679
0.020772
0.0207755
0.0207785
0.0207809
0.020783
0.0207847
0.0207862
0.0207874
0.0207885
0.0207893
0.0207901
0.0207907
0.0207912
0.0207916
0.0207919
0.0207922
0.0207925
0.0207927
0.0207928
0.020793
0.0207931
0.0207931
0.0207932
0.0207932
0.0207932
0.0207932
0.0207932
0.0207932
0.0207932
0.0207932
0.0207932
0.0207933
0.0207933
0.0207933
0.0207933
0.0207933
0.0207933
0.0207934
0.0207934
0.0207934
0.0207934
0.0207934
0.0207934
0.0207932
0.0207913
0.0207896
0.0207853
0.00791663
0.00852068
0.0114877
0.0135188
0.0151527
0.0164052
0.0173556
0.0180779
0.0186306
0.0190571
0.0193896
0.0196564
0.0198643
0.0200276
0.0201554
0.0202657
0.0203557
0.0204295
0.0204901
0.02054
0.0205814
0.0206159
0.0206446
0.0206686
0.0206887
0.0207055
0.0207196
0.0207315
0.0207415
0.0207498
0.0207569
0.0207628
0.0207678
0.020772
0.0207755
0.0207785
0.020781
0.0207831
0.0207848
0.0207863
0.0207875
0.0207886
0.0207894
0.0207902
0.0207908
0.0207912
0.0207917
0.020792
0.0207923
0.0207925
0.0207927
0.0207929
0.020793
0.0207931
0.0207931
0.0207931
0.0207931
0.0207931
0.0207931
0.0207931
0.0207931
0.0207932
0.0207932
0.0207932
0.0207932
0.0207932
0.0207933
0.0207933
0.0207933
0.0207933
0.0207933
0.0207934
0.0207934
0.0207934
0.0207934
0.0207934
0.0207932
0.0207913
0.0207896
0.0207853
0.00835752
0.00858514
0.0112874
0.0129558
0.0143234
0.0154518
0.0163885
0.017164
0.0178032
0.0183281
0.0187583
0.0191121
0.019406
0.0196445
0.0198415
0.0199994
0.0201311
0.0202408
0.0203321
0.0204081
0.0204713
0.020524
0.0205678
0.0206044
0.020635
0.0206605
0.0206819
0.0206997
0.0207147
0.0207272
0.0207377
0.0207465
0.0207539
0.0207601
0.0207653
0.0207696
0.0207733
0.0207764
0.020779
0.0207812
0.020783
0.0207846
0.0207859
0.020787
0.0207879
0.0207887
0.0207893
0.0207899
0.0207903
0.0207907
0.0207911
0.0207914
0.0207916
0.0207919
0.0207921
0.0207922
0.0207924
0.0207925
0.0207926
0.0207927
0.0207928
0.0207929
0.0207929
0.020793
0.020793
0.0207931
0.0207931
0.0207931
0.0207932
0.0207932
0.0207933
0.0207933
0.0207933
0.0207933
0.0207934
0.0207934
0.0207932
0.0207913
0.0207896
0.0207854
0.00636359
0.00795224
0.0107509
0.0128593
0.0145885
0.0159556
0.0170154
0.0178289
0.0184519
0.0189303
0.0193001
0.0195889
0.0198165
0.019996
0.020141
0.0202554
0.0203474
0.0204227
0.0204846
0.0205355
0.0205775
0.0206123
0.0206412
0.0206652
0.0206853
0.020702
0.0207161
0.0207278
0.0207377
0.020746
0.020753
0.0207589
0.0207639
0.0207681
0.0207716
0.0207746
0.0207772
0.0207793
0.0207812
0.0207827
0.0207841
0.0207852
0.0207862
0.0207871
0.0207878
0.0207884
0.020789
0.0207894
0.0207898
0.0207902
0.0207905
0.0207908
0.020791
0.0207913
0.0207915
0.0207917
0.0207919
0.020792
0.0207922
0.0207923
0.0207924
0.0207925
0.0207926
0.0207927
0.0207928
0.0207929
0.0207929
0.020793
0.020793
0.0207931
0.0207931
0.0207932
0.0207932
0.0207933
0.0207933
0.0207934
0.0207932
0.0207913
0.0207897
0.0207854
0.00632471
0.00866212
0.011142
0.0132616
0.0150152
0.0163949
0.0174457
0.0182327
0.0188192
0.0192576
0.019588
0.0198397
0.0200329
0.0201822
0.0202999
0.0203926
0.0204659
0.0205249
0.0205726
0.0206112
0.0206426
0.0206683
0.0206893
0.0207066
0.0207208
0.0207326
0.0207423
0.0207504
0.0207571
0.0207627
0.0207674
0.0207713
0.0207746
0.0207774
0.0207797
0.0207816
0.0207833
0.0207847
0.0207859
0.0207869
0.0207878
0.0207885
0.0207892
0.0207897
0.0207902
0.0207906
0.0207909
0.0207912
0.0207915
0.0207917
0.0207919
0.0207921
0.0207922
0.0207924
0.0207925
0.0207926
0.0207927
0.0207927
0.0207928
0.0207929
0.0207929
0.020793
0.020793
0.0207931
0.0207931
0.0207931
0.0207932
0.0207932
0.0207932
0.0207933
0.0207933
0.0207933
0.0207933
0.0207934
0.0207934
0.0207934
0.0207932
0.0207913
0.0207897
0.0207855
0.0118864
0.0114043
0.0133969
0.0148707
0.0160607
0.0170096
0.0177606
0.0183535
0.0188215
0.0191919
0.0194864
0.0197221
0.0199116
0.0200647
0.0201892
0.0202911
0.0203745
0.0204433
0.0205002
0.0205475
0.0205869
0.0206198
0.0206473
0.0206703
0.0206896
0.0207059
0.0207196
0.0207311
0.0207408
0.0207489
0.0207558
0.0207617
0.0207666
0.0207707
0.0207743
0.0207772
0.0207797
0.0207818
0.0207836
0.0207851
0.0207864
0.0207875
0.0207884
0.0207892
0.0207899
0.0207904
0.0207909
0.0207913
0.0207916
0.0207919
0.0207922
0.0207924
0.0207925
0.0207927
0.0207928
0.0207929
0.020793
0.020793
0.0207931
0.0207932
0.0207932
0.0207932
0.0207933
0.0207933
0.0207933
0.0207933
0.0207933
0.0207934
0.0207934
0.0207934
0.0207934
0.0207934
0.0207934
0.0207934
0.0207934
0.0207934
0.0207932
0.0207913
0.0207897
0.0207854
0.0133236
0.0124763
0.0141384
0.0154011
0.0164566
0.0173138
0.0179993
0.0185428
0.018973
0.0193141
0.0195855
0.0198026
0.0199772
0.0201184
0.0202333
0.0203272
0.0204043
0.0204679
0.0205206
0.0205643
0.0206008
0.0206313
0.0206568
0.0206782
0.0206962
0.0207113
0.0207241
0.0207348
0.0207439
0.0207515
0.020758
0.0207635
0.0207681
0.020772
0.0207753
0.0207781
0.0207804
0.0207824
0.0207841
0.0207855
0.0207868
0.0207878
0.0207886
0.0207894
0.02079
0.0207905
0.020791
0.0207914
0.0207917
0.020792
0.0207922
0.0207924
0.0207925
0.0207927
0.0207928
0.0207929
0.020793
0.020793
0.0207931
0.0207932
0.0207932
0.0207932
0.0207933
0.0207933
0.0207933
0.0207933
0.0207933
0.0207934
0.0207934
0.0207934
0.0207934
0.0207934
0.0207934
0.0207934
0.0207934
0.0207934
0.0207932
0.0207913
0.0207897
0.0207854
0.0145615
0.0137757
0.0151009
0.0160986
0.0169512
0.017659
0.0182377
0.0187068
0.0190856
0.0193913
0.0196385
0.019839
0.0200022
0.0201356
0.0202451
0.0203353
0.0204099
0.0204717
0.0205232
0.0205661
0.020602
0.0206321
0.0206573
0.0206785
0.0206964
0.0207114
0.0207241
0.0207348
0.0207439
0.0207515
0.020758
0.0207634
0.020768
0.0207719
0.0207752
0.020778
0.0207804
0.0207824
0.0207841
0.0207855
0.0207867
0.0207878
0.0207886
0.0207894
0.02079
0.0207905
0.020791
0.0207913
0.0207917
0.0207919
0.0207922
0.0207924
0.0207925
0.0207927
0.0207928
0.0207929
0.020793
0.020793
0.0207931
0.0207931
0.0207932
0.0207932
0.0207933
0.0207933
0.0207933
0.0207933
0.0207933
0.0207934
0.0207934
0.0207934
0.0207934
0.0207934
0.0207934
0.0207934
0.0207934
0.0207934
0.0207932
0.0207913
0.0207897
0.0207854
0.0154956
0.0148912
0.0159285
0.0167106
0.0173952
0.0179767
0.0184628
0.0188654
0.0191969
0.0194694
0.0196933
0.0198774
0.0200292
0.0201546
0.0202585
0.0203447
0.0204165
0.0204764
0.0205265
0.0205684
0.0206036
0.0206332
0.0206581
0.0206791
0.0206968
0.0207117
0.0207243
0.020735
0.020744
0.0207516
0.020758
0.0207634
0.0207681
0.0207719
0.0207752
0.020778
0.0207804
0.0207824
0.0207841
0.0207855
0.0207867
0.0207878
0.0207886
0.0207894
0.02079
0.0207905
0.020791
0.0207914
0.0207917
0.0207919
0.0207922
0.0207924
0.0207925
0.0207927
0.0207928
0.0207929
0.020793
0.020793
0.0207931
0.0207931
0.0207932
0.0207932
0.0207933
0.0207933
0.0207933
0.0207933
0.0207933
0.0207934
0.0207934
0.0207934
0.0207934
0.0207934
0.0207934
0.0207934
0.0207934
0.0207934
0.0207932
0.0207913
0.0207897
0.0207854
0.0162715
0.0158472
0.0166439
0.0172506
0.0177951
0.0182687
0.0186739
0.0190168
0.019305
0.0195463
0.0197478
0.0199162
0.0200567
0.0201741
0.0202723
0.0203545
0.0204234
0.0204813
0.02053
0.0205709
0.0206054
0.0206345
0.020659
0.0206797
0.0206972
0.020712
0.0207245
0.0207351
0.0207441
0.0207516
0.0207581
0.0207635
0.0207681
0.020772
0.0207753
0.020778
0.0207804
0.0207824
0.0207841
0.0207855
0.0207867
0.0207878
0.0207886
0.0207894
0.02079
0.0207905
0.020791
0.0207914
0.0207917
0.0207919
0.0207922
0.0207924
0.0207925
0.0207927
0.0207928
0.0207929
0.020793
0.020793
0.0207931
0.0207931
0.0207932
0.0207932
0.0207933
0.0207933
0.0207933
0.0207933
0.0207933
0.0207934
0.0207934
0.0207934
0.0207934
0.0207934
0.0207934
0.0207934
0.0207934
0.0207934
0.0207932
0.0207913
0.0207897
0.0207854
0.0169371
0.0166534
0.0172549
0.0177207
0.01815
0.0185327
0.0188682
0.0191585
0.0194078
0.0196204
0.0198012
0.0199544
0.020084
0.0201936
0.0202862
0.0203644
0.0204305
0.0204863
0.0205335
0.0205735
0.0206072
0.0206358
0.0206599
0.0206804
0.0206977
0.0207123
0.0207248
0.0207353
0.0207442
0.0207517
0.0207581
0.0207635
0.0207681
0.020772
0.0207753
0.020778
0.0207804
0.0207824
0.0207841
0.0207855
0.0207867
0.0207878
0.0207886
0.0207894
0.02079
0.0207905
0.020791
0.0207914
0.0207917
0.0207919
0.0207922
0.0207924
0.0207925
0.0207927
0.0207928
0.0207929
0.020793
0.020793
0.0207931
0.0207932
0.0207932
0.0207932
0.0207933
0.0207933
0.0207933
0.0207933
0.0207933
0.0207934
0.0207934
0.0207934
0.0207934
0.0207934
0.0207934
0.0207934
0.0207934
0.0207934
0.0207932
0.0207913
0.0207897
0.0207854
0.0175111
0.0173255
0.0177725
0.0181262
0.0184614
0.0187685
0.0190445
0.0192892
0.0195039
0.0196907
0.0198522
0.0199913
0.0201107
0.0202128
0.0203
0.0203743
0.0204376
0.0204914
0.0205372
0.020576
0.020609
0.0206371
0.0206608
0.020681
0.0206981
0.0207127
0.020725
0.0207354
0.0207443
0.0207518
0.0207581
0.0207635
0.0207681
0.020772
0.0207753
0.020778
0.0207804
0.0207824
0.0207841
0.0207855
0.0207867
0.0207878
0.0207886
0.0207894
0.02079
0.0207905
0.020791
0.0207914
0.0207917
0.0207919
0.0207922
0.0207924
0.0207925
0.0207927
0.0207928
0.0207929
0.020793
0.020793
0.0207931
0.0207932
0.0207932
0.0207932
0.0207933
0.0207933
0.0207933
0.0207933
0.0207933
0.0207934
0.0207934
0.0207934
0.0207934
0.0207934
0.0207934
0.0207934
0.0207934
0.0207934
0.0207932
0.0207913
0.0207897
0.0207854
0.018004
0.0178821
0.0182084
0.0184734
0.0187325
0.0189769
0.0192028
0.0194082
0.0195925
0.0197562
0.0199004
0.0200266
0.0201363
0.0202314
0.0203134
0.020384
0.0204446
0.0204964
0.0205407
0.0205786
0.0206108
0.0206383
0.0206617
0.0206817
0.0206986
0.020713
0.0207252
0.0207356
0.0207444
0.0207519
0.0207582
0.0207636
0.0207681
0.020772
0.0207753
0.0207781
0.0207804
0.0207824
0.0207841
0.0207855
0.0207867
0.0207878
0.0207886
0.0207894
0.02079
0.0207905
0.020791
0.0207914
0.0207917
0.0207919
0.0207922
0.0207924
0.0207925
0.0207927
0.0207928
0.0207929
0.020793
0.020793
0.0207931
0.0207932
0.0207932
0.0207932
0.0207933
0.0207933
0.0207933
0.0207933
0.0207933
0.0207934
0.0207934
0.0207934
0.0207934
0.0207934
0.0207934
0.0207934
0.0207934
0.0207934
0.0207932
0.0207913
0.0207897
0.0207854
0.018425
0.0183413
0.0185741
0.0187691
0.0189668
0.0191597
0.0193434
0.0195152
0.0196731
0.0198165
0.0199451
0.0200596
0.0201606
0.0202491
0.0203263
0.0203933
0.0204513
0.0205013
0.0205442
0.0205811
0.0206126
0.0206396
0.0206626
0.0206823
0.020699
0.0207133
0.0207254
0.0207357
0.0207445
0.0207519
0.0207582
0.0207636
0.0207681
0.020772
0.0207753
0.0207781
0.0207804
0.0207824
0.0207841
0.0207855
0.0207867
0.0207878
0.0207886
0.0207894
0.02079
0.0207905
0.020791
0.0207914
0.0207917
0.0207919
0.0207922
0.0207924
0.0207925
0.0207927
0.0207928
0.0207929
0.020793
0.020793
0.0207931
0.0207932
0.0207932
0.0207932
0.0207933
0.0207933
0.0207933
0.0207933
0.0207933
0.0207934
0.0207934
0.0207934
0.0207934
0.0207934
0.0207934
0.0207934
0.0207934
0.0207934
0.0207932
0.0207913
0.0207897
0.0207854
0.0187831
0.0187199
0.0188803
0.0190199
0.019168
0.0193186
0.0194672
0.0196104
0.0197457
0.0198712
0.0199861
0.0200901
0.0201831
0.0202657
0.0203384
0.0204021
0.0204577
0.0205059
0.0205475
0.0205835
0.0206143
0.0206408
0.0206635
0.0206829
0.0206995
0.0207136
0.0207256
0.0207359
0.0207446
0.020752
0.0207583
0.0207636
0.0207682
0.020772
0.0207753
0.0207781
0.0207804
0.0207824
0.0207841
0.0207855
0.0207867
0.0207878
0.0207886
0.0207894
0.02079
0.0207905
0.020791
0.0207914
0.0207917
0.0207919
0.0207922
0.0207924
0.0207925
0.0207927
0.0207928
0.0207929
0.020793
0.020793
0.0207931
0.0207932
0.0207932
0.0207932
0.0207933
0.0207933
0.0207933
0.0207933
0.0207933
0.0207934
0.0207934
0.0207934
0.0207934
0.0207934
0.0207934
0.0207934
0.0207934
0.0207934
0.0207932
0.0207913
0.0207897
0.0207854
0.0190867
0.0190323
0.0191363
0.0192317
0.0193398
0.0194557
0.0195751
0.0196943
0.0198101
0.0199203
0.0200232
0.0201178
0.0202037
0.0202809
0.0203496
0.0204104
0.0204637
0.0205102
0.0205507
0.0205857
0.0206159
0.020642
0.0206643
0.0206835
0.0206999
0.0207139
0.0207258
0.020736
0.0207447
0.020752
0.0207583
0.0207637
0.0207682
0.020772
0.0207753
0.0207781
0.0207804
0.0207824
0.0207841
0.0207855
0.0207867
0.0207878
0.0207886
0.0207894
0.02079
0.0207905
0.020791
0.0207913
0.0207917
0.0207919
0.0207922
0.0207924
0.0207925
0.0207927
0.0207928
0.0207929
0.020793
0.020793
0.0207931
0.0207932
0.0207932
0.0207932
0.0207933
0.0207933
0.0207933
0.0207933
0.0207933
0.0207934
0.0207934
0.0207934
0.0207934
0.0207934
0.0207934
0.0207934
0.0207934
0.0207934
0.0207932
0.0207913
0.0207897
0.0207854
0.0193433
0.0192902
0.0193498
0.0194098
0.0194855
0.019573
0.0196682
0.0197673
0.0198667
0.0199637
0.0200562
0.0201427
0.0202223
0.0202947
0.0203598
0.0204179
0.0204691
0.0205142
0.0205536
0.0205878
0.0206174
0.020643
0.0206651
0.020684
0.0207002
0.0207141
0.020726
0.0207361
0.0207448
0.0207521
0.0207584
0.0207637
0.0207682
0.020772
0.0207753
0.0207781
0.0207804
0.0207824
0.0207841
0.0207855
0.0207867
0.0207878
0.0207886
0.0207894
0.02079
0.0207905
0.020791
0.0207913
0.0207917
0.0207919
0.0207922
0.0207924
0.0207925
0.0207927
0.0207928
0.0207929
0.020793
0.020793
0.0207931
0.0207932
0.0207932
0.0207932
0.0207933
0.0207933
0.0207933
0.0207933
0.0207933
0.0207934
0.0207934
0.0207934
0.0207934
0.0207934
0.0207934
0.0207934
0.0207934
0.0207934
0.0207932
0.0207913
0.0207897
0.0207854
0.0195598
0.0195032
0.0195271
0.0195583
0.0196078
0.0196721
0.0197474
0.0198298
0.0199155
0.0200014
0.020085
0.0201645
0.0202388
0.020307
0.0203689
0.0204246
0.0204741
0.0205178
0.0205562
0.0205897
0.0206188
0.020644
0.0206658
0.0206845
0.0207006
0.0207144
0.0207262
0.0207362
0.0207448
0.0207522
0.0207584
0.0207637
0.0207682
0.020772
0.0207753
0.0207781
0.0207804
0.0207824
0.0207841
0.0207855
0.0207867
0.0207878
0.0207886
0.0207894
0.02079
0.0207905
0.020791
0.0207913
0.0207917
0.0207919
0.0207922
0.0207924
0.0207925
0.0207927
0.0207928
0.0207929
0.020793
0.020793
0.0207931
0.0207932
0.0207932
0.0207932
0.0207933
0.0207933
0.0207933
0.0207933
0.0207933
0.0207934
0.0207934
0.0207934
0.0207934
0.0207934
0.0207934
0.0207934
0.0207934
0.0207934
0.0207932
0.0207913
0.0207897
0.0207854
0.0197414
0.0196784
0.0196732
0.0196809
0.019709
0.0197546
0.0198137
0.0198824
0.0199568
0.0200335
0.0201096
0.0201833
0.020253
0.0203176
0.0203769
0.0204304
0.0204784
0.0205209
0.0205585
0.0205913
0.02062
0.0206449
0.0206664
0.0206849
0.0207009
0.0207146
0.0207263
0.0207363
0.0207449
0.0207522
0.0207584
0.0207637
0.0207682
0.0207721
0.0207753
0.0207781
0.0207804
0.0207824
0.0207841
0.0207855
0.0207867
0.0207878
0.0207886
0.0207894
0.02079
0.0207905
0.020791
0.0207913
0.0207917
0.0207919
0.0207922
0.0207924
0.0207925
0.0207927
0.0207928
0.0207929
0.020793
0.020793
0.0207931
0.0207932
0.0207932
0.0207932
0.0207933
0.0207933
0.0207933
0.0207933
0.0207933
0.0207934
0.0207934
0.0207934
0.0207934
0.0207934
0.0207934
0.0207934
0.0207934
0.0207934
0.0207932
0.0207913
0.0207897
0.0207854
0.019892
0.0198209
0.0197917
0.0197802
0.0197911
0.0198216
0.0198679
0.0199256
0.0199908
0.02006
0.0201301
0.020199
0.0202648
0.0203266
0.0203835
0.0204354
0.020482
0.0205236
0.0205604
0.0205927
0.020621
0.0206456
0.0206669
0.0206853
0.0207012
0.0207148
0.0207264
0.0207364
0.020745
0.0207522
0.0207584
0.0207637
0.0207682
0.0207721
0.0207753
0.0207781
0.0207804
0.0207824
0.0207841
0.0207855
0.0207867
0.0207878
0.0207886
0.0207894
0.02079
0.0207905
0.020791
0.0207913
0.0207917
0.0207919
0.0207922
0.0207924
0.0207925
0.0207927
0.0207928
0.0207929
0.020793
0.020793
0.0207931
0.0207932
0.0207932
0.0207932
0.0207933
0.0207933
0.0207933
0.0207933
0.0207933
0.0207934
0.0207934
0.0207934
0.0207934
0.0207934
0.0207934
0.0207934
0.0207934
0.0207934
0.0207932
0.0207913
0.0207897
0.0207854
0.020014
0.0199342
0.019885
0.0198581
0.0198555
0.0198743
0.0199105
0.0199597
0.0200178
0.0200811
0.0201465
0.0202115
0.0202744
0.0203338
0.0203889
0.0204394
0.020485
0.0205258
0.020562
0.0205939
0.0206218
0.0206462
0.0206673
0.0206856
0.0207014
0.0207149
0.0207265
0.0207365
0.020745
0.0207523
0.0207585
0.0207637
0.0207682
0.0207721
0.0207753
0.0207781
0.0207804
0.0207824
0.0207841
0.0207855
0.0207867
0.0207878
0.0207886
0.0207894
0.02079
0.0207905
0.020791
0.0207913
0.0207917
0.0207919
0.0207922
0.0207924
0.0207925
0.0207927
0.0207928
0.0207929
0.020793
0.020793
0.0207931
0.0207932
0.0207932
0.0207932
0.0207933
0.0207933
0.0207933
0.0207933
0.0207933
0.0207934
0.0207934
0.0207934
0.0207934
0.0207934
0.0207934
0.0207934
0.0207934
0.0207934
0.0207932
0.0207913
0.0207897
0.0207854
0.0201082
0.0200198
0.0199547
0.0199158
0.0199031
0.0199132
0.019942
0.019985
0.0200379
0.0200969
0.0201587
0.0202209
0.0202816
0.0203392
0.020393
0.0204424
0.0204872
0.0205274
0.0205632
0.0205948
0.0206225
0.0206466
0.0206677
0.0206858
0.0207015
0.020715
0.0207266
0.0207366
0.020745
0.0207523
0.0207585
0.0207638
0.0207682
0.0207721
0.0207753
0.0207781
0.0207804
0.0207824
0.0207841
0.0207855
0.0207867
0.0207878
0.0207886
0.0207894
0.02079
0.0207905
0.020791
0.0207913
0.0207917
0.0207919
0.0207922
0.0207924
0.0207925
0.0207927
0.0207928
0.0207929
0.020793
0.020793
0.0207931
0.0207932
0.0207932
0.0207932
0.0207933
0.0207933
0.0207933
0.0207933
0.0207933
0.0207934
0.0207934
0.0207934
0.0207934
0.0207934
0.0207934
0.0207934
0.0207934
0.0207934
0.0207932
0.0207913
0.0207897
0.0207854
0.0201742
0.0200782
0.0200012
0.0199541
0.0199346
0.019939
0.0199629
0.0200018
0.0200512
0.0201073
0.0201669
0.0202272
0.0202864
0.0203428
0.0203957
0.0204444
0.0204887
0.0205285
0.020564
0.0205954
0.0206229
0.020647
0.0206679
0.020686
0.0207016
0.0207151
0.0207267
0.0207366
0.0207451
0.0207523
0.0207585
0.0207638
0.0207683
0.0207721
0.0207753
0.0207781
0.0207804
0.0207824
0.0207841
0.0207855
0.0207867
0.0207878
0.0207886
0.0207894
0.02079
0.0207905
0.020791
0.0207913
0.0207917
0.0207919
0.0207922
0.0207924
0.0207925
0.0207927
0.0207928
0.0207929
0.020793
0.020793
0.0207931
0.0207932
0.0207932
0.0207932
0.0207933
0.0207933
0.0207933
0.0207933
0.0207933
0.0207934
0.0207934
0.0207934
0.0207934
0.0207934
0.0207934
0.0207934
0.0207934
0.0207934
0.0207932
0.0207913
0.0207897
0.0207854
0.02021
0.0201084
0.0200248
0.0199732
0.0199502
0.0199518
0.0199733
0.0200101
0.0200578
0.0201125
0.0201709
0.0202304
0.0202888
0.0203447
0.0203971
0.0204455
0.0204895
0.0205291
0.0205644
0.0205957
0.0206231
0.0206471
0.020668
0.0206861
0.0207017
0.0207151
0.0207267
0.0207366
0.0207451
0.0207523
0.0207585
0.0207638
0.0207683
0.0207721
0.0207753
0.0207781
0.0207804
0.0207824
0.0207841
0.0207855
0.0207867
0.0207878
0.0207886
0.0207894
0.02079
0.0207905
0.020791
0.0207913
0.0207917
0.0207919
0.0207922
0.0207924
0.0207925
0.0207927
0.0207928
0.0207929
0.020793
0.020793
0.0207931
0.0207932
0.0207932
0.0207932
0.0207933
0.0207933
0.0207933
0.0207933
0.0207933
0.0207934
0.0207934
0.0207934
0.0207934
0.0207934
0.0207934
0.0207934
0.0207934
0.0207934
0.0207932
0.0207913
0.0207897
0.0207854
0.00694749
0.0068207
0.00662087
0.00636118
0.00605491
0.00571353
0.00534445
0.00498369
0.00389066
0.00390605
0.00862991
0.00870012
0.00875652
0.00879321
0.00880024
0.00876401
0.00866449
0.00853767
0.00669867
0.00807705
0.0104822
0.0105132
0.0105236
0.0105094
0.0104641
0.0103776
0.0102382
0.0100963
0.00833114
0.0101173
0.012166
0.0121954
0.0122054
0.012194
0.012155
0.012079
0.0119567
0.0118325
0.0101463
0.0119805
0.0136401
0.013666
0.0136752
0.0136654
0.0136328
0.0135715
0.0134743
0.0133786
0.0118867
0.0136147
0.014895
0.0149176
0.0149257
0.014919
0.0148947
0.0148483
0.0147757
0.0147087
0.0134654
0.0149772
0.0159416
0.0159622
0.01597
0.0159659
0.0159483
0.0159153
0.0158644
0.01582
0.0148313
0.0160821
0.0168052
0.0168232
0.0168308
0.0168289
0.0168169
0.016794
0.0167584
0.0167302
0.0159739
0.0169658
0.0175147
0.0175296
0.0175361
0.0175355
0.0175272
0.0175111
0.0174869
0.0174689
0.0169056
0.0176676
0.0180965
0.0181091
0.0181145
0.0181139
0.0181075
0.0180953
0.0180774
0.018065
0.0176549
0.0182261
0.0185754
0.0185858
0.0185896
0.0185881
0.0185823
0.0185718
0.0185571
0.0185475
0.0182532
0.0186725
0.0189723
0.0189802
0.0189822
0.0189798
0.0189731
0.0189625
0.0189493
0.0189398
0.0187294
0.0190315
0.0193036
0.0193097
0.0193102
0.0193059
0.0192971
0.0192853
0.019272
0.0192609
0.01911
0.0193232
0.0195842
0.0195883
0.0195865
0.0195797
0.0195691
0.0195553
0.0195394
0.0195254
0.0194156
0.0195621
0.0198256
0.0198277
0.0198234
0.0198137
0.0197998
0.0197825
0.0197631
0.0197448
0.0196623
0.0197586
0.0200369
0.0200367
0.0200295
0.0200159
0.0199971
0.0199753
0.0199515
0.0199278
0.0198621
0.0199199
0.0202266
0.0202235
0.0202115
0.0201922
0.0201673
0.0201386
0.0201081
0.0200782
0.0200227
0.0200509
0.0204018
0.0203947
0.0203749
0.020346
0.0203115
0.0202737
0.0202348
0.0201977
0.0201476
0.0201525
0.0205663
0.0205474
0.020509
0.0204612
0.02041
0.0203593
0.0203121
0.0202699
0.0202262
0.0202212
0.0207389
0.0206982
0.020642
0.0205832
0.0205243
0.020466
0.020409
0.0203536
0.020298
0.0202699
0.00479155
0.00517292
0.00369013
0.00282723
0.00216546
0.00162174
0.00117107
0.000779318
0.000542225
0.000431306
0.00430302
0.00419081
0.00345856
0.00276729
0.00214819
0.00161612
0.00116906
0.000784136
0.000525361
0.000440173
0.00422024
0.00394619
0.00332353
0.00271074
0.00212828
0.00161051
0.00116851
0.000790808
0.000512901
0.000452337
0.00431558
0.00388851
0.00327002
0.00267734
0.0021126
0.00160453
0.00116703
0.000796192
0.00050267
0.00046385
0.00443773
0.00390057
0.00326412
0.00266546
0.00210429
0.00160039
0.00116578
0.000800689
0.000494794
0.000474715
0.00455821
0.00393794
0.00328214
0.00266762
0.00210218
0.00159836
0.00116491
0.000804114
0.0004891
0.000484369
0.00466258
0.00398269
0.00330921
0.00267679
0.00210405
0.00159797
0.00116429
0.000806361
0.000485523
0.000492198
0.00474316
0.00402669
0.00333567
0.00268772
0.00210742
0.00159835
0.00116377
0.000807158
0.000483952
0.000497487
0.00479582
0.00406589
0.00335514
0.00269652
0.00211012
0.0015985
0.00116303
0.000806244
0.000484099
0.000499211
0.00481942
0.00409987
0.00336501
0.00270083
0.00211124
0.00159801
0.00116159
0.000803468
0.000485955
0.00049963
0.00483105
0.00397057
0.00329473
0.00265912
0.00208286
0.00157364
0.00113713
0.000719431
0.000711216
0.000367109
0.00483557
0.00397038
0.0033017
0.00266479
0.00208798
0.00157847
0.00114164
0.000723662