/*--------------------------------*- C++ -*----------------------------------*\
  =========                 |
  \\      /  F ield         | OpenFOAM: The Open Source CFD Toolbox
   \\    /   O peration     | Website:  https://openfoam.org
    \\  /    A nd           | Version:  10
     \\/     M anipulation  |
\*---------------------------------------------------------------------------*/
FoamFile
{
    format      ascii;
    class       volScalarField;
    location    "2.64e-05";
    object      p;
}
// * * * * * * * * * * * * * * * * * * * * * * * * * * * * * * * * * * * * * //

dimensions      [0 2 -2 0 0 0 0];

internalField   nonuniform List<scalar> 
7600
(
0.00149758
9363.79
13781.8
16994.8
19450.3
21397.5
22982.8
24301.8
25422.7
26356.6
3518.99
12077.1
16109.7
19041.6
21282.3
23059.5
24506.9
25711.1
26731.4
27576.7
7268.85
14962.8
18585.6
21218.1
23229.7
24824.8
26123.4
27202.9
28116.3
28872.6
11226.2
18005
21194.9
23511.4
25281
26683.4
27824.5
28771.8
29571.7
30230
15366.2
21185.5
23921.7
25907.7
27424
28625
29601.4
30410.7
31092.1
31648.9
19663.3
24485.1
26749.8
28392.5
29646
30638.3
31444.2
32111.1
32671
33125.8
24091.5
27883.7
29661.7
30950.6
31933.6
32711.4
33342.4
33863.7
34300.3
34653.3
28624.1
31360.4
32639.5
33566.3
34272.9
34831.5
35284.4
35658
35970.3
36221.9
33235.2
34893.6
35664.9
36223.9
36649.6
36985.9
37258.3
37482.8
37670.2
37820.7
37898.8
38460.6
38719
38906.3
39048.6
39160.9
39251.7
39326.3
39388.4
39438
-18817.8
-5089.98
1365.25
6062.02
9653.06
12500
14815.2
16734.9
18351
19729.1
-18461.3
-4820.75
1598.16
6268.18
9838.61
12669.1
14971
16879.6
18486.5
19857.8
-17741.8
-4271.92
2070.07
6684.26
10212
13008.6
15282.9
17168.7
18756.6
20113.9
-16664.7
-3448.21
2777.56
7307.47
10770.7
13516.1
15748.8
17600.1
19159.2
20495.1
-15237.4
-2355.25
3716.16
8133.89
11511.3
14188.5
16365.7
18170.9
19691.2
20997.9
-13469.3
-1000.08
4879.97
9158.4
12429.2
15021.7
17129.6
18877.1
20348.5
21617.7
-11372
608.578
6261.57
10374.6
13518.8
16010.6
18036.1
19714.6
21126.9
22349.9
-8959.53
2460.45
7852.37
11775.2
14773.6
17149.5
19080.1
20678.8
22022.3
23190.5
-6248.02
4544.16
9642.78
13351.6
16186.1
18432
20256.4
21765.6
23030.9
24137.1
-3256.09
6846.69
11621.5
15093.8
17747.5
19850.6
21559.4
22972.6
24152.5
25183.5
22539.6
25222.2
27050.2
28373.1
29368.7
30138.4
30745.4
31231.4
31625.1
31947
32212.8
32433.8
32618.1
32772.5
32902.2
33011.5
33103.9
33182.2
33248.5
33304.8
33352.7
33393.4
33428.1
33457.6
33482.8
33504.3
33522.6
33538.3
33551.6
33563
33572.7
33581
33588.1
33594.2
33599.3
33603.7
33607.5
33610.7
33613.5
33615.8
33617.8
33619.5
33621
33622.2
33623.3
33624.2
33624.9
33625.6
33626.1
33626.6
33627
33627.4
33627.7
33627.9
33628.2
33628.3
33628.5
33628.6
33628.7
33628.8
33628.9
33629
33629.1
33629.1
33629.2
33629.2
33629.2
33629.3
33629.3
33629.3
33629.3
33629.3
33629.3
33629.3
33629.4
33629.4
33629.4
33629.4
33629.2
33630.2
22609.4
25242.2
27054.6
28372.2
29366.1
30135.3
30742.4
31228.7
31622.9
31945.2
32211.1
32432.4
32617
32771.5
32901.4
33010.9
33103.4
33181.8
33248.2
33304.5
33352.5
33393.2
33428
33457.5
33482.8
33504.3
33522.6
33538.2
33551.6
33563
33572.7
33581
33588.1
33594.2
33599.3
33603.8
33607.5
33610.7
33613.5
33615.8
33617.8
33619.5
33621
33622.2
33623.3
33624.2
33624.9
33625.6
33626.2
33626.6
33627
33627.4
33627.7
33627.9
33628.2
33628.3
33628.5
33628.6
33628.7
33628.8
33628.9
33629
33629.1
33629.1
33629.2
33629.2
33629.2
33629.3
33629.3
33629.3
33629.3
33629.3
33629.3
33629.3
33629.4
33629.4
33629.4
33629.4
33629.2
33630.2
22748.8
25283.4
27064.4
28371
29361.1
30129.4
30736.6
31223.5
31618.3
31941.6
32207.8
32429.6
32614.6
32769.6
32899.8
33009.6
33102.4
33180.9
33247.5
33304
33352.1
33392.9
33427.7
33457.4
33482.6
33504.2
33522.5
33538.2
33551.6
33563
33572.7
33581
33588.1
33594.2
33599.4
33603.8
33607.5
33610.7
33613.5
33615.8
33617.8
33619.5
33621
33622.2
33623.3
33624.2
33624.9
33625.6
33626.2
33626.6
33627
33627.4
33627.7
33627.9
33628.2
33628.3
33628.5
33628.6
33628.8
33628.8
33628.9
33629
33629.1
33629.1
33629.2
33629.2
33629.2
33629.3
33629.3
33629.3
33629.3
33629.3
33629.3
33629.3
33629.4
33629.4
33629.4
33629.4
33629.2
33630.2
22957.7
25348.1
27081.5
28370.8
29354.7
30121.1
30728.2
31215.8
31611.7
31936
32203.2
32425.5
32611.2
32766.8
32897.5
33007.8
33100.9
33179.7
33246.5
33303.2
33351.4
33392.4
33427.3
33457.1
33482.4
33504
33522.4
33538.1
33551.5
33563
33572.7
33581
33588.1
33594.2
33599.4
33603.8
33607.6
33610.8
33613.5
33615.9
33617.9
33619.6
33621
33622.2
33623.3
33624.2
33625
33625.6
33626.2
33626.7
33627.1
33627.4
33627.7
33628
33628.2
33628.4
33628.5
33628.6
33628.8
33628.9
33628.9
33629
33629.1
33629.1
33629.2
33629.2
33629.2
33629.3
33629.3
33629.3
33629.3
33629.3
33629.3
33629.3
33629.4
33629.4
33629.4
33629.4
33629.2
33630.2
23235.3
25439.7
27108.9
28373.5
29347.8
30111
30717.7
31205.9
31602.9
31928.6
32197.4
32420.1
32606.7
32763
32894.4
33005.3
33098.9
33178.1
33245.2
33302.2
33350.6
33391.8
33426.8
33456.7
33482.1
33503.8
33522.3
33538
33551.5
33562.9
33572.7
33581
33588.2
33594.2
33599.4
33603.8
33607.6
33610.8
33613.6
33615.9
33617.9
33619.6
33621
33622.3
33623.3
33624.2
33625
33625.6
33626.2
33626.7
33627.1
33627.4
33627.7
33628
33628.2
33628.4
33628.5
33628.7
33628.8
33628.9
33628.9
33629
33629.1
33629.1
33629.2
33629.2
33629.2
33629.3
33629.3
33629.3
33629.3
33629.3
33629.3
33629.3
33629.4
33629.4
33629.4
33629.4
33629.2
33630.2
23580.1
25562.5
27150
28381.2
29341.9
30099.9
30705.3
31194.1
31592.3
31919.3
32189.8
32413.8
32601.1
32758.4
32890.6
33002.1
33096.4
33176.1
33243.6
33300.9
33349.6
33391
33426.2
33456.2
33481.8
33503.5
33522.1
33537.9
33551.4
33562.9
33572.7
33581
33588.2
33594.3
33599.4
33603.9
33607.6
33610.9
33613.6
33615.9
33617.9
33619.6
33621.1
33622.3
33623.4
33624.3
33625
33625.7
33626.2
33626.7
33627.1
33627.4
33627.7
33628
33628.2
33628.4
33628.5
33628.7
33628.8
33628.9
33629
33629
33629.1
33629.1
33629.2
33629.2
33629.2
33629.3
33629.3
33629.3
33629.3
33629.3
33629.3
33629.3
33629.4
33629.4
33629.4
33629.4
33629.2
33630.2
23989.5
25721.6
27209
28396.7
29338.4
30088.8
30691.8
31180.6
31579.9
31908.5
32180.4
32406.5
32594.8
32753
32886.1
32998.5
33093.4
33173.7
33241.7
33299.4
33348.4
33390.1
33425.5
33455.7
33481.3
33503.2
33521.9
33537.7
33551.3
33562.8
33572.7
33581
33588.2
33594.3
33599.5
33603.9
33607.7
33610.9
33613.7
33616
33618
33619.7
33621.1
33622.4
33623.4
33624.3
33625.1
33625.7
33626.3
33626.7
33627.1
33627.5
33627.8
33628
33628.2
33628.4
33628.5
33628.7
33628.8
33628.9
33629
33629
33629.1
33629.1
33629.2
33629.2
33629.2
33629.3
33629.3
33629.3
33629.3
33629.3
33629.3
33629.4
33629.4
33629.4
33629.4
33629.4
33629.2
33630.2
24459.7
25922.7
27290.2
28422.4
29338.8
30078.4
30677.6
31165.7
31566
31896.1
32169.7
32397.4
32587.6
32747
32880.9
32994.2
33089.9
33170.9
33239.4
33297.6
33347
33389
33424.7
33455
33480.9
33502.9
33521.6
33537.6
33551.2
33562.8
33572.6
33581
33588.2
33594.3
33599.5
33604
33607.7
33611
33613.7
33616
33618
33619.7
33621.2
33622.4
33623.4
33624.3
33625.1
33625.7
33626.3
33626.8
33627.2
33627.5
33627.8
33628
33628.2
33628.4
33628.6
33628.7
33628.8
33628.9
33629
33629
33629.1
33629.1
33629.2
33629.2
33629.3
33629.3
33629.3
33629.3
33629.3
33629.3
33629.3
33629.4
33629.4
33629.4
33629.4
33629.4
33629.2
33630.2
24987.4
26172
27397.9
28461.1
29344.9
30069.8
30663.2
31150
31550.8
31882.3
32157.7
32387.2
32579.1
32740
32875.6
32989.6
33086.1
33167.7
33236.9
33295.6
33345.4
33387.7
33423.7
33454.3
33480.3
33502.5
33521.3
33537.4
33551
33562.7
33572.6
33581
33588.2
33594.4
33599.6
33604
33607.8
33611
33613.8
33616.1
33618.1
33619.8
33621.2
33622.5
33623.5
33624.4
33625.1
33625.8
33626.3
33626.8
33627.2
33627.5
33627.8
33628.1
33628.3
33628.4
33628.6
33628.7
33628.8
33628.9
33629
33629.1
33629.1
33629.2
33629.2
33629.2
33629.3
33629.3
33629.3
33629.3
33629.3
33629.3
33629.3
33629.4
33629.4
33629.4
33629.4
33629.4
33629.2
33630.2
25556.5
26460.3
27521.3
28502.9
29348.3
30056.5
30643.6
31129.1
31531.1
31864.6
32142.3
32374.1
32568.1
32730.9
32868
32983.5
33081.1
33163.7
33233.7
33293
33343.3
33386.1
33422.4
33453.3
33479.5
33501.9
33520.9
33537
33550.8
33562.5
33572.5
33581
33588.2
33594.4
33599.6
33604.1
33607.9
33611.1
33613.8
33616.2
33618.2
33619.8
33621.3
33622.5
33623.5
33624.4
33625.2
33625.8
33626.4
33626.8
33627.2
33627.5
33627.8
33628.1
33628.3
33628.5
33628.6
33628.7
33628.8
33628.9
33629
33629.1
33629.1
33629.2
33629.2
33629.2
33629.3
33629.3
33629.3
33629.3
33629.3
33629.3
33629.4
33629.4
33629.4
33629.4
33629.4
33629.4
33629.2
33630.2
27374.3
27655.2
28260
28969.9
29652.8
30261.6
30786.2
31231.3
31606.3
31921.4
32186
32408.5
32595.6
32753.3
32886.4
32998.8
33093.9
33174.5
33242.8
33300.8
33350
33391.8
33427.3
33457.5
33483.2
33505.1
33523.7
33539.5
33552.9
33564.4
33574.1
33582.4
33589.4
33595.4
33600.5
33604.9
33608.6
33611.7
33614.4
33616.7
33618.6
33620.2
33621.6
33622.8
33623.8
33624.7
33625.4
33626
33626.5
33627
33627.4
33627.7
33628
33628.2
33628.4
33628.5
33628.7
33628.8
33628.9
33629
33629
33629.1
33629.2
33629.2
33629.2
33629.3
33629.3
33629.3
33629.3
33629.3
33629.3
33629.4
33629.4
33629.4
33629.4
33629.4
33629.4
33629.4
33629.2
33630.2
29918.2
29655.5
29772.5
30093.2
30488.5
30889.7
31264.6
31600.7
31895.2
32150.1
32369
32556.1
32715.7
32851.7
32967.4
33065.9
33149.7
33221
33281.8
33333.5
33377.5
33414.9
33446.8
33474
33497.2
33516.9
33533.6
33547.9
33560.1
33570.4
33579.3
33586.8
33593.2
33598.6
33603.2
33607.2
33610.5
33613.4
33615.8
33617.9
33619.6
33621.1
33622.4
33623.4
33624.4
33625.1
33625.8
33626.3
33626.8
33627.2
33627.6
33627.9
33628.1
33628.3
33628.5
33628.6
33628.8
33628.9
33629
33629
33629.1
33629.1
33629.2
33629.2
33629.3
33629.3
33629.3
33629.3
33629.3
33629.3
33629.4
33629.4
33629.4
33629.4
33629.4
33629.4
33629.4
33629.4
33629.3
33630.2
31889.7
31301.5
31099.1
31136.2
31300.4
31521.6
31758.9
31990.3
32204.8
32398.2
32569.4
32719.1
32849.2
32961.6
33058.4
33141.5
33212.7
33273.8
33326
33370.6
33408.8
33441.3
33469.1
33492.8
33513.1
33530.3
33545.1
33557.6
33568.3
33577.4
33585.2
33591.8
33597.4
33602.2
33606.3
33609.8
33612.7
33615.2
33617.4
33619.2
33620.8
33622.1
33623.2
33624.1
33624.9
33625.6
33626.2
33626.7
33627.1
33627.5
33627.8
33628
33628.3
33628.4
33628.6
33628.7
33628.8
33628.9
33629
33629.1
33629.1
33629.2
33629.2
33629.2
33629.3
33629.3
33629.3
33629.3
33629.3
33629.4
33629.4
33629.4
33629.4
33629.4
33629.4
33629.4
33629.4
33629.4
33629.3
33630.2
33399.6
32649.4
32246.9
32083.8
32069.4
32140.8
32256.7
32391.3
32529.2
32661.8
32784.7
32895.9
32995
33082.4
33158.8
33225.3
33282.9
33332.6
33375.4
33412.3
33443.9
33471
33494.2
33514.1
33531.1
33545.6
33558
33568.6
33577.6
33585.3
33591.9
33597.5
33602.3
33606.3
33609.8
33612.7
33615.2
33617.4
33619.2
33620.7
33622.1
33623.2
33624.1
33624.9
33625.6
33626.2
33626.7
33627.1
33627.5
33627.8
33628
33628.3
33628.4
33628.6
33628.7
33628.8
33628.9
33629
33629.1
33629.1
33629.2
33629.2
33629.3
33629.3
33629.3
33629.3
33629.3
33629.3
33629.4
33629.4
33629.4
33629.4
33629.4
33629.4
33629.4
33629.4
33629.4
33629.4
33629.3
33630.2
34552.2
33740.1
33221.4
32922.9
32775.6
32727.4
32740.7
32789.6
32857.1
32932.1
33008.1
33081.1
33149
33210.8
33266.1
33315.2
33358.4
33396.2
33429
33457.5
33482.1
33503.3
33521.6
33537.3
33550.7
33562.3
33572.1
33580.6
33587.8
33594
33599.2
33603.7
33607.6
33610.8
33613.6
33616
33618
33619.7
33621.2
33622.4
33623.5
33624.4
33625.2
33625.8
33626.4
33626.8
33627.2
33627.6
33627.9
33628.1
33628.3
33628.5
33628.6
33628.8
33628.9
33629
33629
33629.1
33629.2
33629.2
33629.2
33629.3
33629.3
33629.3
33629.3
33629.3
33629.4
33629.4
33629.4
33629.4
33629.4
33629.4
33629.4
33629.4
33629.4
33629.4
33629.4
33629.4
33629.3
33630.2
35436.1
34618.1
34039.2
33653.3
33410.6
33269.9
33199.2
33174.7
33179.4
33201.7
33233.6
33269.9
33307.3
33343.6
33377.9
33409.3
33437.7
33463.1
33485.6
33505.4
33522.6
33537.7
33550.7
33562
33571.7
33580.1
33587.3
33593.4
33598.7
33603.2
33607.1
33610.4
33613.2
33615.7
33617.7
33619.5
33621
33622.2
33623.3
33624.3
33625
33625.7
33626.3
33626.8
33627.2
33627.5
33627.8
33628.1
33628.3
33628.5
33628.6
33628.7
33628.9
33628.9
33629
33629.1
33629.1
33629.2
33629.2
33629.3
33629.3
33629.3
33629.3
33629.3
33629.4
33629.4
33629.4
33629.4
33629.4
33629.4
33629.4
33629.4
33629.4
33629.4
33629.4
33629.4
33629.4
33629.4
33629.3
33630.2
36119.2
35324.1
34720.7
34281.8
33972.8
33762.5
33624.8
33539
33489.4
33464.6
33456
33457.9
33466.2
33478
33491.5
33505.5
33519.2
33532.1
33544.1
33555
33564.7
33573.4
33581.1
33587.8
33593.6
33598.7
33603.1
33606.9
33610.1
33613
33615.4
33617.4
33619.2
33620.7
33622
33623.1
33624.1
33624.9
33625.6
33626.2
33626.7
33627.1
33627.5
33627.8
33628
33628.2
33628.4
33628.6
33628.7
33628.8
33628.9
33629
33629.1
33629.1
33629.2
33629.2
33629.3
33629.3
33629.3
33629.3
33629.4
33629.4
33629.4
33629.4
33629.4
33629.4
33629.4
33629.4
33629.4
33629.4
33629.4
33629.4
33629.4
33629.4
33629.4
33629.4
33629.4
33629.4
33629.3
33630.2
36651.9
35892.8
35286.6
34818.4
34465
34203.6
34013.5
33877.6
33782
33715.9
33671.1
33641.5
33622.6
33611.2
33604.8
33601.8
33601.1
33601.8
33603.3
33605.4
33607.6
33609.9
33612.1
33614.1
33616
33617.7
33619.3
33620.7
33621.9
33622.9
33623.9
33624.7
33625.4
33626
33626.5
33626.9
33627.3
33627.6
33627.9
33628.1
33628.3
33628.5
33628.7
33628.8
33628.9
33629
33629.1
33629.1
33629.2
33629.2
33629.3
33629.3
33629.3
33629.3
33629.4
33629.4
33629.4
33629.4
33629.4
33629.4
33629.4
33629.4
33629.4
33629.4
33629.4
33629.4
33629.4
33629.4
33629.4
33629.4
33629.4
33629.4
33629.4
33629.4
33629.4
33629.4
33629.4
33629.4
33629.3
33630.3
37070.9
36352.3
35755.7
35273.9
34892.2
34594.1
34364
34187.8
34053.8
33952.3
33875.6
33817.7
33773.9
33740.8
33715.7
33696.6
33682
33670.9
33662.3
33655.6
33650.4
33646.3
33643.1
33640.6
33638.6
33636.9
33635.6
33634.6
33633.7
33633
33632.4
33632
33631.6
33631.2
33631
33630.7
33630.5
33630.4
33630.2
33630.1
33630
33629.9
33629.9
33629.8
33629.8
33629.7
33629.7
33629.7
33629.6
33629.6
33629.6
33629.6
33629.6
33629.5
33629.5
33629.5
33629.5
33629.5
33629.5
33629.5
33629.5
33629.5
33629.5
33629.5
33629.5
33629.5
33629.5
33629.4
33629.4
33629.4
33629.4
33629.4
33629.4
33629.4
33629.4
33629.4
33629.4
33629.4
33629.3
33630.3
37403
36724.6
36144
35658.9
35260.2
34936.6
34676.3
34468.3
34302.8
34171.3
34066.9
33983.9
33917.7
33864.9
33822.4
33788.3
33760.6
33738.2
33719.8
33704.8
33692.4
33682.2
33673.7
33666.7
33660.8
33655.9
33651.8
33648.4
33645.4
33643
33640.9
33639.2
33637.7
33636.5
33635.4
33634.5
33633.8
33633.1
33632.6
33632.1
33631.7
33631.4
33631.1
33630.9
33630.6
33630.5
33630.3
33630.2
33630.1
33630
33629.9
33629.8
33629.8
33629.7
33629.7
33629.7
33629.6
33629.6
33629.6
33629.6
33629.5
33629.5
33629.5
33629.5
33629.5
33629.5
33629.5
33629.5
33629.5
33629.5
33629.5
33629.5
33629.4
33629.4
33629.4
33629.4
33629.4
33629.4
33629.3
33630.3
37667.8
37027
36465.2
35983
35575.2
35234.3
34951.7
34718.9
34527.8
34371.2
34243.2
34138.3
34052.3
33981.6
33923.4
33875.4
33835.6
33802.6
33775.1
33752.2
33733
33716.9
33703.4
33692
33682.4
33674.4
33667.5
33661.7
33656.9
33652.7
33649.2
33646.2
33643.7
33641.6
33639.8
33638.2
33636.9
33635.8
33634.8
33634
33633.4
33632.8
33632.3
33631.9
33631.5
33631.2
33630.9
33630.7
33630.5
33630.4
33630.2
33630.1
33630
33629.9
33629.9
33629.8
33629.8
33629.7
33629.7
33629.6
33629.6
33629.6
33629.6
33629.5
33629.5
33629.5
33629.5
33629.5
33629.5
33629.5
33629.5
33629.5
33629.5
33629.5
33629.5
33629.5
33629.4
33629.5
33629.3
33630.3
37879.9
37272.8
36730.3
36254.5
35842.9
35490.8
35191.9
34939.9
34728.4
34551.2
34403.1
34279.4
34176.1
34089.7
34017.4
33956.8
33905.9
33863.2
33827.3
33797
33771.4
33749.8
33731.5
33716.1
33703
33691.9
33682.5
33674.5
33667.8
33662
33657.1
33653
33649.5
33646.5
33643.9
33641.8
33639.9
33638.3
33637
33635.9
33634.9
33634.1
33633.4
33632.8
33632.3
33631.9
33631.5
33631.2
33631
33630.7
33630.5
33630.4
33630.2
33630.1
33630
33629.9
33629.9
33629.8
33629.7
33629.7
33629.7
33629.6
33629.6
33629.6
33629.6
33629.5
33629.5
33629.5
33629.5
33629.5
33629.5
33629.5
33629.5
33629.5
33629.5
33629.5
33629.5
33629.5
33629.3
33630.3
38050
37472.4
36948.2
36480.5
36068.5
35709.4
35399
35132.4
34904.7
34710.7
34546
34406.3
34288
34187.9
34103.1
34031.4
33970.6
33919.1
33875.5
33838.5
33807.1
33780.4
33757.8
33738.6
33722.2
33708.3
33696.5
33686.5
33678
33670.7
33664.6
33659.3
33654.8
33651
33647.8
33645.1
33642.7
33640.8
33639.1
33637.6
33636.4
33635.4
33634.5
33633.7
33633.1
33632.5
33632.1
33631.7
33631.4
33631.1
33630.8
33630.6
33630.5
33630.3
33630.2
33630.1
33630
33629.9
33629.8
33629.8
33629.7
33629.7
33629.6
33629.6
33629.6
33629.6
33629.5
33629.5
33629.5
33629.5
33629.5
33629.5
33629.5
33629.5
33629.5
33629.5
33629.5
33629.5
33629.3
33630.3
38186.1
37633.7
37126.2
36667.1
36256.7
35893.6
35575.1
35297.5
35057
34849.6
34671.2
34518.2
34387.3
34275.4
34179.8
34098.3
34028.8
33969.6
33919.1
33876.1
33839.4
33808.2
33781.7
33759
33739.7
33723.3
33709.4
33697.5
33687.3
33678.7
33671.3
33665.1
33659.8
33655.2
33651.4
33648.1
33645.3
33643
33640.9
33639.2
33637.8
33636.5
33635.5
33634.6
33633.8
33633.1
33632.6
33632.1
33631.7
33631.4
33631.1
33630.9
33630.6
33630.5
33630.3
33630.2
33630.1
33630
33629.9
33629.8
33629.8
33629.7
33629.7
33629.6
33629.6
33629.6
33629.6
33629.5
33629.5
33629.5
33629.5
33629.5
33629.5
33629.5
33629.5
33629.5
33629.5
33629.5
33629.3
33630.3
38294
37762.8
37269.9
36818.9
36411.2
36046.1
35722
35436.4
35186.1
34967.9
34778.5
34614.6
34473.2
34351.4
34246.7
34156.9
34079.9
34013.9
33957.5
33909.3
33868.1
33832.9
33802.8
33777.2
33755.3
33736.7
33720.7
33707.2
33695.6
33685.8
33677.4
33670.3
33664.2
33659
33654.6
33650.8
33647.6
33644.9
33642.6
33640.6
33639
33637.5
33636.3
33635.3
33634.4
33633.7
33633.1
33632.5
33632.1
33631.7
33631.3
33631.1
33630.8
33630.6
33630.4
33630.3
33630.2
33630.1
33630
33629.9
33629.8
33629.8
33629.7
33629.7
33629.6
33629.6
33629.6
33629.6
33629.5
33629.5
33629.5
33629.5
33629.5
33629.5
33629.5
33629.5
33629.5
33629.5
33629.4
33630.3
38378.4
37864.3
37383.7
36940.1
36535.3
36169.4
35841.6
35550.1
35292.4
35066
34867.8
34695.2
34545.2
34415.4
34303.2
34206.5
34123.2
34051.7
33990.3
33937.6
33892.6
33854
33821
33792.8
33768.7
33748.1
33730.5
33715.6
33702.8
33691.9
33682.6
33674.7
33668
33662.2
33657.3
33653.2
33649.6
33646.6
33644
33641.9
33640
33638.4
33637.1
33635.9
33635
33634.1
33633.4
33632.8
33632.3
33631.9
33631.5
33631.2
33631
33630.7
33630.5
33630.4
33630.2
33630.1
33630
33629.9
33629.9
33629.8
33629.7
33629.7
33629.7
33629.6
33629.6
33629.6
33629.6
33629.5
33629.5
33629.5
33629.5
33629.5
33629.5
33629.5
33629.5
33629.5
33629.4
33630.3
38442.5
37941.8
37471
37033.6
36631.6
36265.7
35935.5
35639.7
35376.6
35143.9
34939.2
34759.8
34603.2
34467
34348.9
34246.7
34158.4
34082.4
34017
33960.8
33912.5
33871.2
33835.8
33805.5
33779.6
33757.5
33738.6
33722.4
33708.6
33696.9
33686.9
33678.3
33671.1
33664.9
33659.6
33655.1
33651.3
33648
33645.2
33642.9
33640.9
33639.2
33637.7
33636.5
33635.4
33634.5
33633.8
33633.1
33632.6
33632.1
33631.7
33631.4
33631.1
33630.8
33630.6
33630.4
33630.3
33630.2
33630.1
33630
33629.9
33629.8
33629.8
33629.7
33629.7
33629.6
33629.6
33629.6
33629.6
33629.5
33629.5
33629.5
33629.5
33629.5
33629.5
33629.5
33629.5
33629.5
33629.4
33630.3
38488.7
37997.9
37534.4
37101.7
36702.1
36336.5
36004.8
35706.2
35439.3
35202.1
34992.6
34808.2
34646.8
34505.9
34383.4
34277.1
34185.1
34105.7
34037.3
33978.4
33927.8
33884.3
33847.1
33815.2
33788
33764.6
33744.7
33727.7
33713.1
33700.7
33690.1
33681.1
33673.4
33666.9
33661.3
33656.6
33652.5
33649.1
33646.1
33643.6
33641.5
33639.7
33638.2
33636.9
33635.8
33634.8
33634
33633.3
33632.7
33632.3
33631.8
33631.5
33631.2
33630.9
33630.7
33630.5
33630.3
33630.2
33630.1
33630
33629.9
33629.8
33629.8
33629.7
33629.7
33629.6
33629.6
33629.6
33629.6
33629.5
33629.5
33629.5
33629.5
33629.5
33629.5
33629.5
33629.5
33629.5
33629.4
33630.3
38518.6
38034.3
37575.7
37146.3
36748.3
36383
36050.4
35750.1
35480.8
35240.8
35028.1
34840.6
34675.9
34532
34406.5
34297.5
34203
34121.4
34050.9
33990.2
33938
33893.2
33854.7
33821.8
33793.6
33769.5
33748.8
33731.2
33716.2
33703.3
33692.4
33683
33675.1
33668.3
33662.5
33657.6
33653.4
33649.8
33646.8
33644.2
33642
33640.1
33638.5
33637.1
33636
33635
33634.2
33633.5
33632.9
33632.4
33631.9
33631.5
33631.2
33631
33630.7
33630.5
33630.4
33630.2
33630.1
33630
33629.9
33629.9
33629.8
33629.7
33629.7
33629.7
33629.6
33629.6
33629.6
33629.6
33629.5
33629.5
33629.5
33629.5
33629.5
33629.5
33629.5
33629.5
33629.4
33630.3
38533.4
38052.2
37596.1
37168.3
36771.2
36406
36073.1
35772
35501.5
35260.1
35045.9
34856.7
34690.5
34545
34418.1
34307.7
34212
34129.2
34057.8
33996.2
33943.2
33897.7
33858.6
33825.1
33796.4
33771.9
33750.9
33733
33717.7
33704.6
33693.5
33684
33675.9
33669
33663.1
33658.1
33653.8
33650.2
33647.1
33644.4
33642.2
33640.3
33638.7
33637.3
33636.1
33635.1
33634.3
33633.5
33632.9
33632.4
33632
33631.6
33631.3
33631
33630.8
33630.6
33630.4
33630.3
33630.1
33630
33629.9
33629.9
33629.8
33629.7
33629.7
33629.7
33629.6
33629.6
33629.6
33629.6
33629.5
33629.5
33629.5
33629.5
33629.5
33629.5
33629.5
33629.5
33629.4
33630.3
39589.3
38275.4
36972.1
35686.7
34426.4
33198.6
32010.1
30865.9
29766.2
28653
39768.6
38817.5
37866.2
36914.7
35963.3
35012.7
34063.7
33117.2
32174.6
31207.2
39875.7
39146.4
38413.8
37675.9
36931.1
36178.8
35419.2
34653.6
33884.8
33097.2
39944.9
39363.2
38777.8
38186.7
37588.3
36981.7
36367
35745.5
35119.9
34480.5
39991.9
39513.5
39032.2
38546.1
38054.2
37555.6
37050.6
36540.2
36026.6
35503.3
40025.2
39622.2
39217
38808.4
38395.7
37978.3
37556.4
37131
36703.5
36269.7
40049.4
39703.1
39355.3
39005.3
38652.6
38297
37938.6
37578.2
37217.1
36852
40067.5
39764.8
39461.2
39156.4
38850
38541.9
38232.5
37922.4
37612.4
37300.4
40081.1
39812.7
39543.8
39274.3
39004
38733.1
38461.9
38190.7
37920.6
37649.8
40091.5
39850.3
39609
39367.5
39125.8
38884.2
38642.9
38402.4
38163.4
37924.8
40099.4
39880.2
39660.9
39441.8
39223
39004.6
38787.1
38570.8
38356.4
38143
40105.6
39904
39702.6
39501.5
39301
39101.3
38902.7
38705.6
38510.5
38317.1
40110.4
39923.2
39736.2
39549.7
39363.9
39179.1
38995.6
38813.8
38634.1
38456.3
40114.1
39938.5
39763.3
39588.5
39414.6
39241.8
39070.3
38900.6
38732.9
38567.4
40117
39950.8
39785
39619.7
39455.3
39291.9
39130
38969.8
38811.6
38655.5
40119.2
39960.6
39802.2
39644.4
39487.5
39331.6
39177.1
39024.2
38873.3
38724.3
40120.9
39968.1
39815.7
39663.7
39512.6
39362.4
39213.5
39066.1
38920.4
38776.7
40122.2
39973.9
39825.8
39678.2
39531.3
39385.3
39240.4
39096.9
38954.8
38814.5
40123.2
39978
39833.1
39688.5
39544.5
39401.2
39258.9
39117.7
38977.8
38839.4
40123.9
39980.8
39837.8
39695.1
39552.7
39410.9
39269.8
39129.5
38990.2
38852
54161.7
55092.9
56212.2
57530
59114.5
61060.9
63515.8
66727.7
71142.8
80502.9
52939.5
53782.8
54801.7
56004.8
57451.4
59227.8
61467.6
64398.3
68427.5
76981.4
51640.6
52395.8
53308.3
54386.9
55684.9
57279.2
59289.7
61920.8
65539.8
73229
50280
50938
51737.4
52684.3
53824.8
55226.7
56995.1
59310
62495.9
69269.3
48858.2
49415.3
50096.7
50905.9
51881.9
53082.4
54597.6
56581.6
59313.8
65127.1
47378.8
47834.3
48394.6
49061.7
49867.4
50859.3
52111.7
53752.4
56012.7
60828
45849.2
46203.2
46640.6
47162.3
47793.3
48570.6
49552.6
50839.5
52613
56398.1
44279
44531.9
44845.1
45219.3
45672.3
46230.5
46936
47860.8
49135.4
51864.1
42679.3
42831.2
43019.7
43244.8
43517.5
43853.6
44278.3
44835.1
45602.2
47252.8
41061.6
41112.8
41176
41251.3
41342.5
41454.6
41596.2
41781.5
42036
42590.4
60790
62167.2
63782.9
65702.4
68017.6
70864.8
74456.4
79154.5
85610
99338.3
60661
62031.6
63638
65546.4
67848.3
70679
74250
78921.4
85340.5
98981.5
60404.2
61760.8
63348.5
65234.2
67508.5
70305.3
73833.5
78449
84791
98261.1
60022
61357.4
62916.5
64767.8
67000.5
69746.1
73209.8
77740.8
83966.4
97182.8
59518
60824.6
62345
64150.4
66327.6
69005
72382.7
76801.3
82872.2
95753.8
58897.1
60166.4
61638.1
63385.8
65493.8
68086.5
71357.4
75636.5
81515.8
93983.8
58164
59387.2
60800
62478.7
64504.3
66996.1
70140.3
74253.6
79905.6
91884.6
57323.4
58491.6
59835.4
61434.2
63364.7
65740.5
68738.8
72661.4
78051.9
89469.8
56377.9
57483.2
58748.5
60257.5
62081.5
64327.1
67161.4
70869.6
75966.3
86755.8
55333.7
56362.4
57541.5
58954
60662.2
62764.7
65418
68889.5
73661.9
83761.4
47750.2
47769.7
47809.1
47869.4
47952.3
48059.7
48194.6
48360.8
48563
48807.7
49103.1
49460
49892.2
50418.4
51060.9
51848.4
52840.8
54130.5
55862
58308.9
47748.1
47767.5
47806.9
47867.3
47950.2
48057.7
48192.6
48358.8
48561.1
48805.8
49101.3
49458.2
49890.4
50416.2
51056.7
51842.1
52832.9
54116.5
55831
58229.4
47743.9
47763.3
47802.7
47863.1
47946
48053.5
48188.5
48354.8
48557.2
48802.1
49097.6
49454.6
49886.5
50411.4
51047.8
51829.5
52816.5
54087.6
55768
58071.1
47737.6
47756.9
47796.3
47856.7
47939.6
48047.3
48182.4
48348.8
48551.3
48796.3
49092
49448.9
49880.2
50402.7
51033.2
51810.5
52790.8
54042.1
55671.4
57834.6
47729.1
47748.5
47787.8
47848.2
47931.2
48039
48174.2
48340.7
48543.3
48788.5
49084.1
49440.7
49870.6
50386.3
51011.6
51784.8
52754.3
53977.6
55538.7
57521.8
47718.6
47737.9
47777.3
47837.7
47920.7
48028.5
48163.9
48330.5
48533.2
48778.3
49073.6
49429.5
49856.1
50363.3
50981.4
51751.7
52705
53890.8
55366.5
57135.5
47706
47725.3
47764.6
47825
47908.1
48016
48151.5
48318
48520.6
48765.5
49059.8
49413.6
49830.7
50333.6
50949.8
51710.5
52640.8
53778.3
55151.1
56680.1
47691.2
47710.5
47749.8
47810.2
47893.2
48001.2
48136.7
48303
48505.2
48749.3
49040.7
49386.4
49799.7
50301.2
50914.4
51659.8
52559.5
53636.3
54888.2
56161.2
47674.2
47693.5
47732.7
47793
47875.9
47983.8
48119
48284.4
48484.9
48724.2
49011
49354.5
49769.5
50269.6
50873.4
51598.2
52458.7
53461
54572.3
55585.1
47653.6
47672.9
47711.9
47771.7
47853.7
47959.8
48093
48257.7
48457.5
48698.5
48987.6
49332.2
49745.6
50240.9
50833.1
51534
52348.7
53263.6
54213.2
54970.8
47609.3
47627.8
47665.4
47722.8
47801.5
47903.2
48030.7
48187.5
48377.1
48604.5
48875.2
49195.7
49574.7
50019.6
50536.1
51121.8
51758.1
52390.8
52892.4
53080.5
47527.4
47543.5
47576.1
47625.9
47693.8
47781.1
47889.8
48022.1
48180.2
48367
48585.2
48837.3
49125.5
49448.7
49800.8
50164.7
50504.8
50754.2
50799.5
50502.8
47431.7
47445.2
47472.3
47513.6
47569.7
47641.4
47729.8
47835.9
47960.7
48105.3
48269.7
48453.3
48653.2
48862.8
49068.9
49247.6
49358.7
49339.2
49094.7
48513.2
47324.4
47335
47356.4
47388.7
47432.2
47487.3
47554.3
47633.3
47724.2
47826.3
47937.8
48055.4
48173.2
48281.1
48362.9
48393.1
48333.8
48131
47711.6
46995.5
47207.9
47215.6
47231
47254
47284.7
47323
47368.5
47420.5
47478.1
47539.2
47600.7
47657.6
47702.2
47723.2
47703.6
47619.6
47438.3
47116.6
46601
45839.6
47084.8
47089.6
47098.9
47112.7
47130.7
47152.4
47176.9
47203
47228.9
47251.8
47267.6
47270.6
47252.4
47201.4
47101.9
46932.8
46667.5
46273.1
45712.2
44953.9
46957.7
46959.5
46963
46967.8
46973.5
46979.2
46983.8
46985.6
46982.3
46970.5
46945.9
46902.3
46831.5
46722.6
46561.7
46331.3
46010.5
45575.2
45000.5
44269.2
46828.9
46828
46825.9
46822.2
46816.3
46807.1
46793.2
46772.7
46743
46700.5
46640.8
46557.9
46444
46289.5
46082.7
45809.4
45453.8
44999
44428.7
43734.7
46701
46697.4
46690.1
46678.5
46661.8
46638.9
46608.2
46567.7
46514.7
46445.6
46356
46240.5
46092.1
45902.5
45662.1
45359.9
44984.2
44523.3
43967.4
43313.4
46576.1
46570.1
46558
46539.1
46512.7
46477.4
46431.8
46373.6
46300.3
46208.4
46094
45951.9
45776.3
45560.1
45295.8
44975
44589.1
44130.6
43593.8
42978.7
46456.2
46448.1
46431.7
46406.3
46371.1
46325
46266.1
46192.7
46102
45991
45856.1
45692.7
45495.9
45260.1
44979.2
44647
44257.7
43806.4
43290.2
42710.8
46343.3
46333.3
46313
46281.9
46239.1
46183.4
46113.2
46026.7
45921.4
45794.6
45642.9
45462.7
45249.8
44999.7
44707.7
44369.4
43980.7
43539
43043.1
42495.6
46239
46227.3
46203.7
46167.6
46118.2
46054.3
45974.5
45877
45759.5
45619.8
45454.8
45261.5
45036.4
44776.1
44476.9
44135.9
43750.5
43319.2
42842.2
42322.5
46144.7
46131.6
46105.1
46064.8
46009.8
45939
45851.2
45744.5
45617.2
45467
45291.5
45088.1
44854
44586.5
44283.1
43941.6
43560.6
43139.6
42679.5
42183.4
46061.7
46047.4
46018.6
45974.7
45915
45838.6
45744.1
45630.1
45494.8
45336.4
45152.7
44941.7
44701
44428.7
44122.9
43782.3
43406.1
42994.5
42549
42072.6
45991
45975.7
45944.9
45898.2
45834.8
45753.8
45654
45534.2
45392.7
45227.9
45038
44821.3
44575.9
44300.4
43993.5
43654.3
43282.8
42879.5
42446.2
41985.8
45933.4
45917.4
45885.1
45836.2
45769.8
45685.3
45581.5
45457.1
45310.9
45141.3
44946.9
44726
44477.4
44199.9
43892.6
43555.1
43187.6
42791.1
42367.5
41919.7
45889.7
45873.1
45839.7
45789.1
45720.6
45633.5
45526.7
45399.2
45249.6
45076.6
44878.9
44655.3
44404.5
44125.8
43818.4
43482.4
43118.2
42726.9
42310.6
41871.9
45860.3
45843.3
45809.2
45757.5
45687.7
45598.8
45490.1
45360.5
45208.7
45033.5
44833.8
44608.4
44356.4
44076.9
43769.7
43434.8
43072.8
42685.1
42273.5
41840.8
45845.5
45828.3
45793.9
45741.6
45671.1
45581.4
45471.8
45341.1
45188.2
45012
44811.3
44585.1
44332.4
44052.7
43745.5
43411.2
43050.4
42664.4
42255.2
41825.5
51871.1
50752.7
49647.2
48498.4
47306.2
46075.3
44812.7
43525.6
42221.4
40907
49298.8
48327.1
47381
46431.9
45480.7
44528.4
43575.6
42623.2
41671.2
40719.8
47394
46603.5
45832.2
45064.8
44303.8
43550.4
42804.7
42066.1
41333.2
40603.8
45997.6
45356.3
44729.1
44106.3
43490.7
42883.3
42284.3
41692.7
41107.2
40525.4
44963.4
44438.8
43924.1
43412.8
42907.1
42408
41915.7
41429.3
40947.8
40469.3
44187
43752.2
43324
42897.9
42475.5
42057.8
41644.7
41235.9
40830.6
40427.5
43595.6
43229.9
42868.1
42507.3
42148.5
41792.6
41439.7
41089.6
40741.7
40395.3
43139
42826.5
42516.1
42205.6
41895.9
41587.6
41281
40976.1
40672.5
40369.8
42782
42510.8
42240.3
41969
41697.5
41426.5
41156.2
40886.6
40617.7
40349.3
42499.9
42261.1
42021.9
41781.3
41539.9
41298.2
41056.6
40815
40573.7
40332.6
42275.2
42061.7
41847.2
41630.9
41413.4
41195.1
40976.3
40757.2
40538
40318.7
42095.1
41901.7
41706.7
41509.7
41311.2
41111.6
40911.2
40710.2
40508.8
40307.2
41950.5
41772.9
41593.3
41411.7
41228.4
41043.8
40858.1
40671.8
40484.9
40297.7
41834.6
41669.3
41502
41332.6
41161.4
40988.8
40815
40640.5
40465.3
40289.8
41742.2
41586.6
41428.8
41269
41107.4
40944.3