/*--------------------------------*- C++ -*----------------------------------*\
  =========                 |
  \\      /  F ield         | OpenFOAM: The Open Source CFD Toolbox
   \\    /   O peration     | Website:  https://openfoam.org
    \\  /    A nd           | Version:  10
     \\/     M anipulation  |
\*---------------------------------------------------------------------------*/
FoamFile
{
    format      ascii;
    class       surfaceScalarField;
    location    "2.64e-05";
    object      phi;
}
// * * * * * * * * * * * * * * * * * * * * * * * * * * * * * * * * * * * * * //

dimensions      [0 3 -1 0 0 0 0];

internalField   nonuniform List<scalar> 
14980
(
0.0364106
-0.513009
0.476598
0.0667567
-0.435276
0.40493
0.0943878
-0.395656
0.368024
0.12014
-0.36931
0.343558
0.144558
-0.350883
0.326465
0.167958
-0.337471
0.314071
0.190487
-0.32741
0.304881
0.212084
-0.319664
0.298067
0.232313
-0.313523
0.293294
-0.308604
0.288622
0.252295
0.0331333
-0.546142
0.0608951
-0.463037
0.0860875
-0.420848
0.109553
-0.392776
0.131789
-0.373119
0.153087
-0.358768
0.173614
-0.347937
0.19346
-0.33951
0.212674
-0.332737
-0.327136
0.231207
0.0297016
-0.575844
0.0546609
-0.487997
0.0772688
-0.443456
0.0983191
-0.413827
0.118265
-0.393065
0.137386
-0.377889
0.15586
-0.366411
0.173809
-0.357459
0.191328
-0.350257
-0.344317
0.20851
0.0261212
-0.601965
0.0481011
-0.509977
0.0679877
-0.463343
0.0865007
-0.43234
0.10405
-0.410614
0.120892
-0.394731
0.1372
-0.382719
0.153105
-0.373364
0.168723
-0.365874
-0.359793
0.184198
0.0224049
-0.62437
0.0412584
-0.52883
0.0583013
-0.480386
0.0741646
-0.448203
0.0892099
-0.425659
0.103666
-0.409187
0.11769
-0.396743
0.131407
-0.38708
0.144925
-0.379393
-0.373238
0.15837
0.0185746
-0.642944
0.0341768
-0.544432
0.0482663
-0.494475
0.0613796
-0.461316
0.0738235
-0.438103
0.0857916
-0.421155
0.0974209
-0.408373
0.108817
-0.398476
0.12007
-0.390646
-0.384437
0.131268
0.0146553
-0.6576
0.0269008
-0.556678
0.037944
-0.505518
0.0482215
-0.471594
0.0579777
-0.447859
0.0673691
-0.430547
0.0765059
-0.417509
0.0854699
-0.40744
0.0943283
-0.399504
-0.39325
0.103142
0.0106842
-0.668284
0.01948
-0.565474
0.0274016
-0.51344
0.0347716
-0.478964
0.0417706
-0.454858
0.0485127
-0.437289
0.055078
-0.424075
0.0615238
-0.413886
0.0678959
-0.405876
-0.399587
0.0742326
0.00668959
-0.674973
0.0119442
-0.570728
0.0166907
-0.518187
0.0211034
-0.483376
0.0252961
-0.459051
0.0293354
-0.441328
0.033274
-0.428013
0.0371422
-0.417754
0.0409676
-0.409701
-0.40339
0.0447708
0.00270211
-0.677675
0.00434179
-0.572368
0.00587162
-0.519716
0.00729698
-0.484802
0.00865389
-0.460408
0.00996066
-0.442635
0.0112387
-0.429291
0.0124953
-0.419011
0.0137397
-0.410946
0.0149781
-0.404628
0.053086
-0.0530862
2.27695e-07
0.0981135
-0.0450278
2.48555e-07
0.138953
-0.0408401
4.08135e-07
0.177067
-0.0381142
5.97241e-07
0.213284
-0.0362178
4.96384e-07
0.248125
-0.0348406
-1.00994e-07
0.281933
-0.0338086
2.74432e-08
0.31495
-0.0330168
6.14272e-07
0.347347
-0.0323981
5.63278e-07
-0.0319296
0.379276
5.58712e-07
0.0527364
-0.105823
0.0974429
-0.0897342
0.138037
-0.0814347
0.175925
-0.0760019
0.211927
-0.0722196
0.246558
-0.069472
0.280162
-0.0674118
0.312974
-0.0658297
0.345168
-0.0645918
-0.0636531
0.376892
0.052056
-0.157879
0.0961822
-0.13386
0.136275
-0.121527
0.173698
-0.113425
0.209258
-0.10778
0.243463
-0.103677
0.276651
-0.100599
0.309053
-0.0982314
0.340836
-0.0963748
-0.0949625
0.372145
0.0510513
-0.20893
0.0943308
-0.17714
0.13367
-0.160867
0.170395
-0.15015
0.205293
-0.142678
0.238861
-0.137245
0.271426
-0.133165
0.303216
-0.130021
0.334388
-0.127547
-0.125655
0.36508
0.0497274
-0.258657
0.0918969
-0.21931
0.130239
-0.199209
0.166038
-0.185948
0.200058
-0.176697
0.232781
-0.169968
0.264527
-0.164911
0.295512
-0.161006
0.325885
-0.15792
-0.155539
0.35577
0.0480887
-0.306746
0.0888907
-0.260111
0.125999
-0.236318
0.16065
-0.220599
0.193582
-0.209629
0.225262
-0.201648
0.255999
-0.195648
0.286001
-0.191008
0.315407
-0.187326
-0.184451
0.344318
0.0461405
-0.352887
0.0853271
-0.299298
0.120974
-0.271965
0.154263
-0.253889
0.185904
-0.241269
0.216346
-0.232091
0.245895
-0.225197
0.274751
-0.219865
0.303045
-0.21562
-0.212271
0.330865
0.0438875
-0.396774
0.0812269
-0.336637
0.115196
-0.305933
0.146914
-0.285607
0.177063
-0.271418
0.206081
-0.261109
0.234267
-0.253382
0.261828
-0.247426
0.288901
-0.242693
-0.238962
0.315593
0.0413358
-0.43811
0.0766106
-0.371912
0.108695
-0.338017
0.138647
-0.315559
0.167109
-0.29988
0.194506
-0.288506
0.221147
-0.280023
0.247275
-0.273554
0.273071
-0.268489
-0.264594
0.298702
0.0384878
0.0715052
0.101512
0.129511
0.156096
0.181661
0.206519
0.231031
0.255835
0.279864
0.395443
-0.0161676
1.16331e-06
0.403773
-0.00833085
9.43132e-07
0.408569
-0.00479624
2.03779e-07
0.411494
-0.00292512
-2.74092e-07
0.413333
-0.0018389
-4.06179e-07
0.414496
-0.0011628
-4.18996e-07
0.415216
-0.000719203
-3.92069e-07
0.415632
-0.000416043
-3.59468e-07
0.415835
-0.000202171
-3.29371e-07
0.415877
-4.14445e-05
-2.5981e-07
0.415803
7.44214e-05
-2.30251e-07
0.415643
0.000160112
-2.21228e-07
0.415415
0.000228314
-2.02993e-07
0.415133
0.000282169
-1.8416e-07
0.414808
0.000324965
-1.59638e-07
0.414449
0.000359097
-1.42641e-07
0.414062
0.000386754
-1.24803e-07
0.413653
0.000409355
-1.13214e-07
0.413225
0.000427921
-9.74182e-08
0.412782
0.00044324
-8.84506e-08
0.412326
0.000455944
-7.65865e-08
0.41186
0.000466515
-7.09351e-08
0.411384
0.000475348
-6.23284e-08
0.410902
0.000482744
-5.90419e-08
0.410413
0.000488957
-5.13951e-08
0.409919
0.000494183
-4.92167e-08
0.40942
0.000498592
-4.27182e-08
0.408918
0.00050231
-4.17055e-08
0.408412
0.000505457
-3.62768e-08
0.407904
0.000508117
-3.60435e-08
0.407394
0.000510372
-3.15139e-08
0.406882
0.00051228
-3.19318e-08
0.406368
0.000513902
-2.77701e-08
0.405853
0.000515275
-2.85958e-08
0.405336
0.000516442
-2.51363e-08
0.404819
0.000517432
-2.62468e-08
0.404301
0.000518274
-2.31799e-08
0.403782
0.000518987
-2.446e-08
0.403262
0.000519595
-2.16635e-08
0.402742
0.000520109
-2.28156e-08
0.402221
0.000520548
-2.02724e-08
0.4017
0.00052092
-2.12685e-08
0.401179
0.000521237
-1.90585e-08
0.400658
0.000521505
-1.92023e-08
0.400136
0.000521735
-1.69593e-08
0.399614
0.000521929
-1.68884e-08
0.399092
0.000522095
-1.48051e-08
0.39857
0.000522236
-1.41678e-08
0.398047
0.000522357
-1.23451e-08
0.397525
0.000522458
-1.25314e-08
0.397002
0.000522544
-1.0843e-08
0.39648
0.000522615
-1.14732e-08
0.395957
0.000522676
-9.52414e-09
0.395434
0.000522726
-1.03628e-08
0.394912
0.000522771
-8.33567e-09
0.394389
0.000522807
-8.96499e-09
0.393866
0.000522839
-7.04728e-09
0.393343
0.000522865
-7.38621e-09
0.39282
0.000522888
-5.73079e-09
0.392297
0.000522907
-5.91542e-09
0.391774
0.000522924
-4.45838e-09
0.391252
0.000522937
-4.74449e-09
0.390729
0.00052295
-3.32104e-09
0.390206
0.000522959
-3.93095e-09
0.389683
0.000522967
-2.70509e-09
0.38916
0.000522973
-3.15516e-09
0.388637
0.00052298
-2.00452e-09
0.388114
0.000522984
-2.25397e-09
0.387591
0.000522988
-1.25388e-09
0.387068
0.000522991
-1.10016e-09
0.386545
0.000522994
-3.09064e-10
0.386022
0.000522995
4.05087e-11
0.385499
0.000522997
6.64265e-10
0.384976
0.000522998
9.86843e-10
0.384453
0.000522998
1.44126e-09
0.38393
0.000522998
1.62535e-09
0.383407
0.000522997
1.96374e-09
0.382884
0.000522998
2.14671e-09
0.382361
0.000522966
2.28155e-09
0.00052296
2.52618e-09
0.392831
-0.0321072
0.401129
-0.0166283
0.405965
-0.00963238
0.408942
-0.00590191
0.41083
-0.00372767
0.412039
-0.00237157
0.412801
-0.00148098
0.413257
-0.000872014
0.413497
-0.000441933
0.413578
-0.000122198
0.413538
0.000114042
0.413413
0.000285019
0.413219
0.00042189
0.412972
0.000530025
0.412681
0.000615967
0.412355
0.000684467
0.412002
0.000739976
0.411626
0.00078534
0.411231
0.000822603
0.410821
0.000853345
0.410398
0.000878836
0.409965
0.000900048
0.409522
0.000917768
0.409073
0.000932606
0.408616
0.000945071
0.408155
0.000955554
0.407689
0.000964396
0.40722
0.000971856
0.406747
0.000978165
0.406272
0.0009835
0.405794
0.000988022
0.405314
0.00099185
0.404833
0.0009951
0.404351
0.000997853
0.403867
0.00100019
0.403382
0.00100218
0.402897
0.00100387
0.40241
0.0010053
0.401923
0.00100651
0.401436
0.00100755
0.400948
0.00100843
0.40046
0.00100917
0.399971
0.00100981
0.399482
0.00101034
0.398993
0.00101081
0.398504
0.00101119
0.398015
0.00101153
0.397525
0.00101181
0.397035
0.00101205
0.396545
0.00101226
0.396056
0.00101243
0.395566
0.00101257
0.395076
0.00101269
0.394585
0.0010128
0.394095
0.00101288
0.393605
0.00101296
0.393115
0.00101302
0.392625
0.00101308
0.392135
0.00101312
0.391644
0.00101316
0.391154
0.00101319
0.390664
0.00101322
0.390173
0.00101325
0.389683
0.00101327
0.389193
0.00101328
0.388703
0.0010133
0.388212
0.00101331
0.387722
0.00101332
0.387232
0.00101333
0.386741
0.00101333
0.386251
0.00101334
0.38576
0.00101334
0.38527
0.00101335
0.38478
0.00101335
0.384289
0.00101335
0.383799
0.00101335
0.383309
0.00101335
0.382818
0.00101335
0.382328
0.00101329
0.00101327
0.387623
-0.0475852
0.395857
-0.0248621
0.400773
-0.0145484
0.403852
-0.00898105
0.40584
-0.00571503
0.407139
-0.00367126
0.407985
-0.002327
0.40852
-0.00140712
0.408835
-0.000756871
0.408992
-0.000278771
0.409022
8.35471e-05
0.408967
0.000340097
0.408843
0.000546583
0.408663
0.000709809
0.408439
0.000839556
0.408181
0.000942852
0.407894
0.00102658
0.407585
0.00109501
0.407256
0.0011512
0.406912
0.00119756
0.406555
0.00123598
0.406187
0.00126796
0.40581
0.00129466
0.405425
0.00131702
0.405035
0.0013358
0.404639
0.00135159
0.404238
0.00136491
0.403834
0.00137615
0.403426
0.00138565
0.403016
0.00139368
0.402604
0.00140049
0.402189
0.00140625
0.401773
0.00141114
0.401356
0.00141529
0.400937
0.00141881
0.400518
0.0014218
0.400097
0.00142433
0.399676
0.00142649
0.399254
0.00142832
0.398832
0.00142987
0.398409
0.00143119
0.397986
0.00143232
0.397562
0.00143327
0.397139
0.00143408
0.396715
0.00143477
0.39629
0.00143536
0.395866
0.00143586
0.395442
0.00143628
0.395017
0.00143665
0.394592
0.00143695
0.394168
0.00143721
0.393743
0.00143743
0.393318
0.00143761
0.392893
0.00143776
0.392468
0.0014379
0.392043
0.00143801
0.391618
0.0014381
0.391193
0.00143819
0.390767
0.00143826
0.390342
0.00143831
0.389917
0.00143836
0.389492
0.00143841
0.389067
0.00143844
0.388642
0.00143847
0.388216
0.0014385
0.387791
0.00143852
0.387366
0.00143854
0.386941
0.00143855
0.386515
0.00143856
0.38609
0.00143857
0.385665
0.00143858
0.38524
0.00143859
0.384814
0.00143859
0.384389
0.0014386
0.383964
0.0014386
0.383539
0.0014386
0.383113
0.0014386
0.382688
0.0014386
0.382263
0.00143851
0.00143849
0.379847
-0.0623515
0.387989
-0.0330043
0.393024
-0.0195832
0.396255
-0.0122125
0.39839
-0.0078494
0.399825
-0.0051068
0.400797
-0.0032991
0.401451
-0.00206078
0.401879
-0.00118476
0.402145
-0.000545061
0.402284
-5.57268e-05
0.402333
0.000291905
0.402311
0.000568441
0.402233
0.000787926
0.40211
0.000962491
0.401951
0.00110123
0.401764
0.00121372
0.401553
0.00130567
0.401324
0.00138116
0.401078
0.00144341
0.400819
0.001495
0.400549
0.00153792
0.40027
0.00157376
0.399983
0.00160376
0.39969
0.00162895
0.399391
0.00165014
0.399088
0.00166799
0.398781
0.00168306
0.398471
0.0016958
0.398158
0.00170657
0.397843
0.00171569
0.397526
0.00172341
0.397207
0.00172996
0.396887
0.00173552
0.396565
0.00174023
0.396243
0.00174423
0.39592
0.00174763
0.395596
0.00175051
0.395271
0.00175296
0.394946
0.00175504
0.39462
0.0017568
0.394294
0.0017583
0.393968
0.00175958
0.393641
0.00176066
0.393314
0.00176159
0.392987
0.00176237
0.39266
0.00176304
0.392333
0.00176361
0.392005
0.00176409
0.391678
0.0017645
0.39135
0.00176484
0.391023
0.00176513
0.390695
0.00176538
0.390367
0.00176558
0.390039
0.00176576
0.389711
0.00176591
0.389383
0.00176604
0.389055
0.00176615
0.388727
0.00176624
0.388399
0.00176632
0.388071
0.00176639
0.387743
0.00176644
0.387415
0.00176649
0.387087
0.00176653
0.386759
0.00176656
0.386431
0.00176659
0.386103
0.00176661
0.385775
0.00176663
0.385447
0.00176665
0.385119
0.00176666
0.384791
0.00176667
0.384462
0.00176668
0.384134
0.00176669
0.383806
0.00176669
0.383478
0.0017667
0.38315
0.0017667
0.382822
0.00176669
0.382494
0.0017667
0.382166
0.00176658
0.00176655
0.369545
-0.0761272
0.377574
-0.041033
0.382764
-0.0247736
0.386196
-0.015644
0.388524
-0.0101779
0.39014
-0.00672237
0.39128
-0.00443858
0.392091
-0.00287205
0.392669
-0.00176295
0.393078
-0.00095425
0.393366
-0.000343224
0.393549
0.000108639
0.393664
0.000453857
0.39372
0.000731281
0.393731
0.000952076
0.393705
0.00112711
0.393649
0.00126912
0.39357
0.00138523
0.39347
0.00148049
0.393355
0.00155903
0.393226
0.00162409
0.393085
0.00167821
0.392936
0.00172338
0.392778
0.00176119
0.392614
0.00179292
0.392445
0.00181961
0.392271
0.0018421
0.392093
0.00186107
0.391912
0.0018771
0.391727
0.00189065
0.391541
0.00190212
0.391353
0.00191184
0.391162
0.00192008
0.390971
0.00192706
0.390778
0.00193298
0.390584
0.00193801
0.39039
0.00194228
0.390194
0.0019459
0.389998
0.00194897
0.389802
0.00195158
0.389605
0.0019538
0.389407
0.00195569
0.38921
0.00195729
0.389012
0.00195865
0.388813
0.0019598
0.388615
0.00196078
0.388416
0.00196162
0.388218
0.00196233
0.388019
0.00196294
0.38782
0.00196345
0.387621
0.00196388
0.387422
0.00196424
0.387223
0.00196455
0.387023
0.00196481
0.386824
0.00196503
0.386625
0.00196521
0.386425
0.00196537
0.386226
0.00196551
0.386027
0.00196563
0.385827
0.00196572
0.385628
0.00196581
0.385428
0.00196588
0.385229
0.00196594
0.38503
0.00196599
0.38483
0.00196603
0.384631
0.00196606
0.384431
0.00196609
0.384232
0.00196612
0.384032
0.00196614
0.383833
0.00196615
0.383633
0.00196617
0.383434
0.00196618
0.383234
0.00196619
0.383035
0.00196619
0.382835
0.00196619
0.382636
0.00196619
0.382436
0.00196619
0.382237
0.0019662
0.382037
0.00196606
0.00196603
0.356777
-0.0885856
0.364679
-0.0489353
0.370059
-0.0301534
0.373734
-0.0193198
0.376302
-0.0127455
0.378141
-0.00856099
0.379488
-0.00578607
0.380496
-0.00387947
0.381261
-0.00252841
0.381851
-0.00154379
0.382314
-0.000806135
0.382671
-0.000248937
0.382954
0.000171399
0.383178
0.0005074
0.383353
0.000776345
0.383492
0.000988733
0.3836
0.00116124
0.383682
0.00130231
0.383745
0.00141798
0.383791
0.0015133
0.383823
0.00159224
0.383843
0.00165787
0.383854
0.00171263
0.383856
0.00175846
0.383852
0.00179691
0.383843
0.00182923
0.383828
0.00185646
0.38381
0.00187943
0.383788
0.00189882
0.383764
0.00191522
0.383737
0.0019291
0.383708
0.00194085
0.383677
0.0019508
0.383645
0.00195924
0.383611
0.0019664
0.383577
0.00197247
0.383542
0.00197762
0.383505
0.00198199
0.383469
0.00198571
0.383431
0.00198885
0.383394
0.00199153
0.383356
0.0019938
0.383317
0.00199573
0.383278
0.00199736
0.38324
0.00199876
0.3832
0.00199994
0.383161
0.00200094
0.383122
0.0020018
0.383082
0.00200253
0.383042
0.00200315
0.383002
0.00200366
0.382963
0.00200409
0.382923
0.00200446
0.382883
0.00200477
0.382843
0.00200504
0.382803
0.00200526
0.382763
0.00200546
0.382722
0.00200562
0.382682
0.00200576
0.382642
0.00200587
0.382602
0.00200597
0.382562
0.00200606
0.382522
0.00200613
0.382481
0.00200619
0.382441
0.00200624
0.382401
0.00200628
0.382361
0.00200631
0.382321
0.00200634
0.38228
0.00200637
0.38224
0.00200639
0.3822
0.0020064
0.38216
0.00200642
0.382119
0.00200643
0.382079
0.00200643
0.382039
0.00200644
0.381999
0.00200644
0.381958
0.00200643
0.381918
0.00200644
0.381878
0.00200628
0.00200624
0.341612
-0.0993324
0.349392
-0.0567158
0.354988
-0.0357493
0.358947
-0.0232783
0.361795
-0.0155938
0.363898
-0.0106638
0.365493
-0.00738113
0.366734
-0.00512075
0.367723
-0.00351727
0.368528
-0.00234876
0.369197
-0.00147543
0.369764
-0.000815831
0.370247
-0.000311018
0.370669
8.55121e-05
0.371041
0.000403904
0.371375
0.000655192
0.371676
0.000859409
0.371952
0.00102647
0.372207
0.00116334
0.372444
0.00127606
0.372667
0.00136936
0.372878
0.0014469
0.373079
0.00151158
0.373272
0.00156568
0.373458
0.00161106
0.373638
0.0016492
0.373813
0.0016813
0.373984
0.00170838
0.374151
0.00173124
0.374316
0.00175055
0.374478
0.00176689
0.374638
0.00178072
0.374797
0.00179244
0.374954
0.00180237
0.375109
0.00181079
0.375264
0.00181792
0.375417
0.00182398
0.37557
0.00182911
0.375723
0.00183347
0.375874
0.00183717
0.376025
0.00184031
0.376176
0.00184297
0.376327
0.00184523
0.376477
0.00184715
0.376627
0.00184878
0.376777
0.00185016
0.376926
0.00185134
0.377076
0.00185234
0.377225
0.00185319
0.377374
0.00185391
0.377523
0.00185451
0.377673
0.00185502
0.377822
0.00185545
0.377971
0.00185581
0.378119
0.00185612
0.378268
0.00185639
0.378417
0.00185661
0.378566
0.0018568
0.378715
0.00185696
0.378864
0.0018571
0.379012
0.00185721
0.379161
0.00185731
0.37931
0.00185739
0.379459
0.00185746
0.379607
0.00185752
0.379756
0.00185756
0.379905
0.00185761
0.380053
0.00185764
0.380202
0.00185767
0.380351
0.00185769
0.380499
0.00185771
0.380648
0.00185772
0.380797
0.00185773
0.380946
0.00185774
0.381094
0.00185775
0.381243
0.00185775
0.381392
0.00185774
0.38154
0.00185775
0.381689
0.00185758
0.00185754
0.324137
-0.107877
0.331826
-0.0644043
0.337654
-0.0415773
0.341924
-0.0275484
0.345089
-0.0187591
0.347495
-0.0130695
0.349376
-0.00926191
0.350888
-0.0066327
0.352135
-0.00476478
0.353189
-0.0034031
0.354101
-0.00238683
0.354902
-0.00161744
0.355619
-0.00102759
0.356271
-0.000566654
0.356868
-0.000192891
0.357427
9.61075e-05
0.357953
0.000333761
0.358451
0.000528305
0.358927
0.000687372
0.359385
0.000818254
0.359828
0.000926523
0.360258
0.00101646
0.360678
0.00109144
0.36109
0.00115413
0.361494
0.00120669
0.361892
0.00125084
0.362286
0.001288
0.362675
0.00131932
0.36306
0.00134575
0.363443
0.00136807
0.363823
0.00138695
0.3642
0.00140293
0.364576
0.00141645
0.364951
0.00142791
0.365324
0.00143762
0.365696
0.00144584
0.366067
0.00145282
0.366438
0.00145874
0.366807
0.00146376
0.367177
0.00146801
0.367545
0.00147162
0.367913
0.00147468
0.368281
0.00147728
0.368649
0.00147949
0.369017
0.00148136
0.369384
0.00148294
0.369751
0.00148429
0.370118
0.00148544
0.370484
0.00148641
0.370851
0.00148724
0.371218
0.00148793
0.371584
0.00148851
0.371951
0.001489
0.372317
0.00148941
0.372683
0.00148977
0.37305
0.00149007
0.373416
0.00149032
0.373782
0.00149054
0.374148
0.00149072
0.374515
0.00149088
0.374881
0.00149101
0.375247
0.00149112
0.375613
0.00149121
0.375979
0.00149129
0.376346
0.00149135
0.376712
0.00149141
0.377078
0.00149145
0.377444
0.00149149
0.37781
0.00149152
0.378176
0.00149155
0.378542
0.00149157
0.378909
0.00149159
0.379275
0.0014916
0.379641
0.00149161
0.380007
0.00149161
0.380373
0.00149161
0.380739
0.00149161
0.381105
0.00149161
0.381472
0.00149145
0.0014914
0.304535
-0.11371
0.312196
-0.0720648
0.318241
-0.0476223
0.322823
-0.0321306
0.326323
-0.0222585
0.329057
-0.0158039
0.331253
-0.0114579
0.333066
-0.00844581
0.334603
-0.00630142
0.335937
-0.00473686
0.33712
-0.00356978
0.338187
-0.00268518
0.339165
-0.00200549
0.340073
-0.00147401
0.340929
-0.00104891
0.34174
-0.000714879
0.342516
-0.000442294
0.343263
-0.000219594
0.343988
-3.74186e-05
0.344694
0.00011242
0.345384
0.000236311
0.346062
0.000339175
0.346728
0.000424886
0.347386
0.000496517
0.348036
0.000556535
0.34868
0.00060693
0.349319
0.000649321
0.349953
0.000685031
0.350583
0.000715155
0.351211
0.00074059
0.351836
0.000762087
0.352458
0.000780268
0.353079
0.000795654
0.353698
0.000808682
0.354316
0.000819716
0.354933
0.000829064
0.355549
0.000836987
0.356164
0.000843702
0.356778
0.000849395
0.357392
0.000854219
0.358005
0.000858311
0.358618
0.000861778
0.359231
0.000864718
0.359843
0.000867209
0.360455
0.000869322
0.361067
0.000871114
0.361679
0.000872634
0.36229
0.000873927
0.362902
0.000875026
0.363513
0.000875969
0.364124
0.000876739
0.364735
0.000877386
0.365346
0.00087794
0.365957
0.000878409
0.366568
0.000878808
0.367179
0.000879145
0.36779
0.00087943
0.368401
0.000879673
0.369012
0.000879877
0.369622
0.00088005
0.370233
0.000880196
0.370844
0.000880319
0.371455
0.000880423
0.372066
0.000880509
0.372676
0.000880582
0.373287
0.000880642
0.373898
0.000880693
0.374509
0.000880735
0.375119
0.00088077
0.37573
0.000880799
0.376341
0.000880821
0.376952
0.00088084
0.377562
0.000880853
0.378173
0.000880862
0.378784
0.000880867
0.379395
0.000880867
0.380005
0.00088086
0.380616
0.000880862
0.381227
0.000880708
0.000880649
0.281349
-0.115195
0.289083
-0.0797991
0.295438
-0.0539773
0.300539
-0.0372314
0.304608
-0.0263272
0.30789
-0.0190858
0.31059
-0.0141579
0.312863
-0.0107187
0.31482
-0.0082593
0.316544
-0.00646042
0.318092
-0.00511736
0.319504
-0.00409806
0.320813
-0.00331353
0.322039
-0.00270031
0.323203
-0.00221259
0.324314
-0.00182596
0.325384
-0.00151277
0.326422
-0.00125736
0.327433
-0.00104838
0.328422
-0.000876565
0.329393
-0.000734617
0.330349
-0.000616858
0.331292
-0.000518823
0.332226
-0.000436964
0.333151
-0.000368437
0.334069
-0.00031095
0.334981
-0.000262636
0.335888
-0.00022197
0.336791
-0.000187697
0.33769
-0.000158783
0.338586
-0.000134366
0.33948
-0.000113733
0.340372
-9.62861e-05
0.341263
-8.15269e-05
0.342151
-6.90351e-05
0.343039
-5.84605e-05
0.343925
-4.95052e-05
0.344811
-4.19219e-05
0.345696
-3.54977e-05
0.34658
-3.00568e-05
0.347464
-2.54471e-05
0.348347
-2.15435e-05
0.34923
-1.82362e-05
0.350113
-1.54355e-05
0.350995
-1.30623e-05
0.351877
-1.10512e-05
0.352759
-9.34612e-06
0.353641
-7.89834e-06
0.354523
-6.6676e-06
0.355404
-5.60782e-06
0.356286
-4.75127e-06
0.357167
-4.03113e-06
0.358049
-3.41285e-06
0.35893
-2.88827e-06
0.359811
-2.44315e-06
0.360692
-2.06689e-06
0.361574
-1.74819e-06
0.362455
-1.47867e-06
0.363336
-1.25074e-06
0.364217
-1.05813e-06
0.365098
-8.95775e-07
0.365979
-7.59164e-07
0.36686
-6.44125e-07
0.367741
-5.48037e-07
0.368622
-4.67397e-07
0.369503
-4.0026e-07
0.370384
-3.43986e-07
0.371265
-2.97203e-07
0.372146
-2.58743e-07
0.373027
-2.27528e-07
0.373908
-2.02199e-07
0.374789
-1.82052e-07
0.375671
-1.67101e-07
0.376552
-1.56817e-07
0.377433
-1.51631e-07
0.378314
-1.51554e-07
0.379195
-1.59095e-07
0.380076
-1.65866e-07
0.380957
-2.92587e-07
-3.63283e-07
1.06521
-0.0922026
-1.0882
1.05464
-0.0692367
1.05213
-0.0514679
1.05286
-0.0379587
1.05468
-0.0281459
1.05671
-0.0211154
1.05861
-0.0160619
1.06029
-0.0123896
1.06171
-0.00968245
1.0629
-0.00765612
1.0639
-0.00611662
1.06474
-0.00493124
1.06543
-0.00400739
1.06601
-0.00327862
1.06649
-0.00269713
1.0669
-0.00223052
1.06724
-0.00185196
1.06752
-0.00154264
1.06776
-0.00128864
1.06797
-0.00107912
1.06814
-0.000905557
1.06828
-0.000761259
1.0684
-0.000640908
1.06851
-0.000540257
1.06859
-0.000455887
1.06867
-0.000385025
1.06873
-0.00032541
1.06878
-0.000275187
1.06883
-0.000232827
1.06887
-0.000197062
1.0689
-0.000166842
1.06893
-0.00014129
1.06895
-0.000119672
1.06897
-0.000101374
1.06899
-8.58814e-05
1.069
-7.27597e-05
1.06901
-6.16434e-05
1.06902
-5.22252e-05
1.06903
-4.4244e-05
1.06904
-3.74809e-05
1.06905
-3.1749e-05
1.06905
-2.68923e-05
1.06906
-2.27756e-05
1.06906
-1.92877e-05
1.06906
-1.63304e-05
1.06907
-1.38243e-05
1.06907
-1.16986e-05
1.06907
-9.89546e-06
1.06907
-8.36509e-06
1.06907
-7.0652e-06
1.06907
-5.9794e-06
1.06908
-5.06427e-06
1.06908
-4.28798e-06
1.06908
-3.62975e-06
1.06908
-3.07189e-06
1.06908
-2.59983e-06
1.06908
-2.19992e-06
1.06908
-1.86183e-06
1.06908
-1.57556e-06
1.06908
-1.33383e-06
1.06908
-1.12971e-06
1.06908
-9.57598e-07
1.06908
-8.12675e-07
1.06908
-6.90917e-07
1.06908
-5.88663e-07
1.06908
-5.03131e-07
1.06908
-4.31243e-07
1.06908
-3.71113e-07
1.06908
-3.21962e-07
1.06908
-2.82534e-07
1.06908
-2.50027e-07
1.06908
-2.2421e-07
1.06908
-2.04639e-07
1.06908
-1.9098e-07
1.06908
-1.83954e-07
1.06908
-1.82192e-07
1.06908
-1.90467e-07
1.06908
-2.09872e-07
1.06908
-2.72955e-07
-3.24563e-07
1.07737
-0.0711981
-1.09838
1.06646
-0.0583296
1.06138
-0.0463853
1.05961
-0.0361885
1.05952
-0.0280533
1.06019
-0.0217826
1.06114
-0.0170144
1.06214
-0.013396
1.0631
-0.0106371
1.06396
-0.00851696
1.06472
-0.00687248
1.06537
-0.00558482
1.06593
-0.00456721
1.06641
-0.00375567
1.06681
-0.00310297
1.06716
-0.00257456
1.06745
-0.0021436
1.0677
-0.00178998
1.06791
-0.00149842
1.06808
-0.00125704
1.06823
-0.00105648
1.06836
-0.000889288
1.06847
-0.000749537
1.06856
-0.000632441
1.06864
-0.000534128
1.06871
-0.000451442
1.06876
-0.000381797
1.06881
-0.000323063
1.06885
-0.00027348
1.06889
-0.000231585
1.06892
-0.000196159
1.06894
-0.000166187
1.06896
-0.000140816
1.06898
-0.000119332
1.069
-0.000101132
1.06901
-8.57107e-05
1.06902
-7.26416e-05
1.06903
-6.15645e-05
1.06904
-5.21745e-05
1.06904
-4.42146e-05
1.06905
-3.74663e-05
1.06905
-3.17457e-05
1.06906
-2.68956e-05
1.06906
-2.27843e-05
1.06906
-1.92981e-05
1.06907
-1.63428e-05
1.06907
-1.38362e-05
1.06907
-1.17108e-05
1.06907
-9.90827e-06
1.06907
-8.3808e-06
1.06908
-7.09331e-06
1.06908
-6.00584e-06
1.06908
-5.08512e-06
1.06908
-4.30513e-06
1.06908
-3.64434e-06
1.06908
-3.08495e-06
1.06908
-2.61119e-06
1.06908
-2.21043e-06
1.06908
-1.87122e-06
1.06908
-1.58459e-06
1.06908
-1.3424e-06
1.06908
-1.13802e-06
1.06908
-9.65707e-07
1.06908
-8.20666e-07
1.06908
-6.98692e-07
1.06908
-5.96397e-07
1.06908
-5.10581e-07
1.06908
-4.39029e-07
1.06908
-3.7993e-07
1.06908
-3.31773e-07
1.06908
-2.92535e-07
1.06908
-2.61417e-07
1.06908
-2.37644e-07
1.06908
-2.20677e-07
1.06908
-2.10159e-07
1.06908
-2.06734e-07
1.06908
-2.12626e-07
1.06908
-2.29289e-07
1.06908
-2.65129e-07
-2.9741e-07
1.08448
-0.0543133
-1.10136
1.07413
-0.0479807
1.06817
-0.0404237
1.06509
-0.0331074
1.06375
-0.0267193
1.0634
-0.0214361
1.06358
-0.017189
1.064
-0.0138201
1.06453
-0.0111596
1.06507
-0.00905636
1.06558
-0.00738755
1.06605
-0.0060564
1.06647
-0.0049883
1.06684
-0.00412589
1.06717
-0.00342534
1.06744
-0.00285319
1.06768
-0.00238338
1.06789
-0.00199575
1.06807
-0.00167463
1.06822
-0.00140769
1.06835
-0.00118511
1.06845
-0.000999011
1.06855
-0.000843062
1.06863
-0.000712114
1.0687
-0.00060197
1.06875
-0.000509188
1.0688
-0.000430935
1.06884
-0.000364867
1.06888
-0.000309036
1.06891
-0.000261821
1.06894
-0.000221868
1.06896
-0.000188043
1.06898
-0.000159394
1.06899
-0.00013512
1.06901
-0.000114549
1.06902
-9.7112e-05
1.06903
-8.23287e-05
1.06903
-6.97942e-05
1.06904
-5.91655e-05
1.06905
-5.01526e-05
1.06905
-4.25095e-05
1.06906
-3.60283e-05
1.06906
-3.05321e-05
1.06906
-2.58715e-05
1.06907
-2.19192e-05
1.06907
-1.85677e-05
1.06907
-1.57255e-05
1.06907
-1.33154e-05
1.06907
-1.12721e-05
1.06907
-9.54098e-06
1.06908
-8.07719e-06
1.06908
-6.83904e-06
1.06908
-5.79088e-06
1.06908
-4.90315e-06
1.06908
-4.15125e-06
1.06908
-3.51457e-06
1.06908
-2.97546e-06
1.06908
-2.51922e-06
1.06908
-2.13313e-06
1.06908
-1.80668e-06
1.06908
-1.53079e-06
1.06908
-1.2978e-06
1.06908
-1.10123e-06
1.06908
-9.35573e-07
1.06908
-7.96163e-07
1.06908
-6.79065e-07
1.06908
-5.80886e-07
1.06908
-4.98952e-07
1.06908
-4.31053e-07
1.06908
-3.7533e-07
1.06908
-3.29993e-07
1.06908
-2.93866e-07
1.06908
-2.65999e-07
1.06908
-2.45654e-07
1.06908
-2.32327e-07
1.06908
-2.26056e-07
1.06908
-2.28084e-07
1.06908
-2.39097e-07
1.06908
-2.59756e-07
-2.78783e-07
1.08793
-0.0414545
-1.10079
1.0789
-0.0389485
1.07297
-0.0345005
1.06935
-0.0294827
1.0673
-0.0246692
1.06626
-0.0204
1.06585
-0.0167737
1.06579
-0.0137669
1.06594
-0.0113059
1.06619
-0.00930269
1.06647
-0.00767504
1.06677
-0.00635087
1.06705
-0.00527099
1.06731
-0.00438732
1.06755
-0.00366151
1.06776
-0.00306316
1.06794
-0.00256805
1.0681
-0.00215697
1.06824
-0.0018146
1.06836
-0.00152869
1.06847
-0.00128937
1.06856
-0.00108862
1.06864
-0.000919921
1.0687
-0.000777931
1.06876
-0.000658258
1.06881
-0.000557276
1.06885
-0.000471981
1.06888
-0.000399877
1.06891
-0.000338879
1.06894
-0.000287246
1.06896
-0.00024352
1.06898
-0.000206475
1.06899
-0.00017508
1.06901
-0.000148466
1.06902
-0.000125901
1.06903
-0.000106765
1.06903
-9.05357e-05
1.06904
-7.67706e-05
1.06905
-6.50949e-05
1.06905
-5.51913e-05
1.06906
-4.67907e-05
1.06906
-3.96653e-05
1.06906
-3.36215e-05
1.06907
-2.84953e-05
1.06907
-2.41475e-05
1.06907
-2.04601e-05
1.06907
-1.73328e-05
1.06907
-1.46809e-05
1.06907
-1.24326e-05
1.06908
-1.05274e-05
1.06908
-8.91435e-06
1.06908
-7.54876e-06
1.06908
-6.39239e-06
1.06908
-5.413e-06
1.06908
-4.58347e-06
1.06908
-3.88099e-06
1.06908
-3.28616e-06
1.06908
-2.78265e-06
1.06908
-2.35656e-06
1.06908
-1.99617e-06
1.06908
-1.6915e-06
1.06908
-1.4341e-06
1.06908
-1.21682e-06
1.06908
-1.0336e-06
1.06908
-8.7931e-07
1.06908
-7.49611e-07
1.06908
-6.40832e-07
1.06908
-5.4997e-07
1.06908
-4.7451e-07
1.06908
-4.12358e-07
1.06908
-3.61686e-07
1.06908
-3.21101e-07
1.06908
-2.89468e-07
1.06908
-2.65889e-07
1.06908
-2.4968e-07
1.06908
-2.4053e-07
1.06908
-2.38636e-07
1.06908
-2.43866e-07
1.06908
-2.55002e-07
-2.66012e-07
1.08918
-0.0318354
-1.0988
1.08166
-0.0314368
1.07624
-0.0290706
1.07254
-0.0257854
1.07015
-0.0222821
1.06869
-0.0189425
1.06786
-0.0159451
1.06745
-0.0133478
1.06728
-0.011144
1.06728
-0.00929641
1.06736
-0.0077581
1.06749
-0.00648094
1.06764
-0.00542175
1.0678
-0.00454269
1.06795
-0.00381211
1.06809
-0.00320387
1.06822
-0.00269642
1.06833
-0.00227218
1.06843
-0.00191679
1.06852
-0.00161856
1.0686
-0.00136787
1.06867
-0.00115685
1.06873
-0.000978981
1.06878
-0.00082889
1.06882
-0.000702113
1.06886
-0.000594938
1.06889
-0.000504269
1.06892
-0.000427518
1.06895
-0.000362514
1.06897
-0.000307437
1.06898
-0.000260754
1.069
-0.000221174
1.06901
-0.000187609
1.06902
-0.000159141
1.06903
-0.000134991
1.06904
-0.000114504
1.06904
-9.71214e-05
1.06905
-8.23734e-05
1.06905
-6.98603e-05
1.06906
-5.92435e-05
1.06906
-5.02358e-05
1.06906
-4.25935e-05
1.06907
-3.61101e-05
1.06907
-3.061e-05
1.06907
-2.59443e-05
1.06907
-2.19867e-05
1.06907
-1.863e-05
1.06908
-1.57833e-05
1.06908
-1.33697e-05
1.06908
-1.13238e-05
1.06908
-9.59065e-06
1.06908
-8.12256e-06
1.06908
-6.87902e-06
1.06908
-5.82566e-06
1.06908
-4.93343e-06
1.06908
-4.17775e-06
1.06908
-3.53784e-06
1.06908
-2.99611e-06
1.06908
-2.53762e-06
1.06908
-2.14974e-06
1.06908
-1.82175e-06
1.06908
-1.54456e-06
1.06908
-1.3105e-06
1.06908
-1.11305e-06
1.06908
-9.46688e-07
1.06908
-8.06762e-07
1.06908
-6.89347e-07
1.06908
-5.9118e-07
1.06908
-5.0953e-07
1.06908
-4.42112e-07
1.06908
-3.86998e-07
1.06908
-3.42629e-07
1.06908
-3.07725e-07
1.06908
-2.81234e-07
1.06908
-2.62302e-07
1.06908
-2.5031e-07
1.06908
-2.44941e-07
1.06908
-2.45524e-07
1.06908
-2.50424e-07