/*--------------------------------*- C++ -*----------------------------------*\
  =========                 |
  \\      /  F ield         | OpenFOAM: The Open Source CFD Toolbox
   \\    /   O peration     | Website:  https://openfoam.org
    \\  /    A nd           | Version:  10
     \\/     M anipulation  |
\*---------------------------------------------------------------------------*/
FoamFile
{
    format      ascii;
    class       volVectorField;
    location    "2.64e-05";
    object      U;
}
// * * * * * * * * * * * * * * * * * * * * * * * * * * * * * * * * * * * * * //

dimensions      [0 1 -1 0 0 0 0];

internalField   nonuniform List<vector> 
7600
(
(4.52914 -2.46501 -3.14894e-19)
(3.60176 -2.39875 -1.72103e-18)
(3.70804 -1.68552 6.61691e-18)
(3.69526 -1.30312 8.88048e-18)
(3.68223 -1.04157 -2.66593e-18)
(3.67068 -0.855072 5.89132e-18)
(3.66074 -0.718668 0)
(3.65152 -0.618985 5.56619e-18)
(3.64264 -0.549087 -5.37399e-18)
(3.57782 -0.562563 0)
(4.91514 -2.40954 1.11392e-18)
(3.97337 -2.34267 1.50437e-18)
(3.96857 -1.64517 -6.8522e-18)
(3.89548 -1.27148 -5.90132e-18)
(3.84066 -1.01589 -6.52113e-18)
(3.7985 -0.83339 -5.89213e-18)
(3.76481 -0.69914 0)
(3.73599 -0.598549 6.15889e-18)
(3.70968 -0.520334 -2.83616e-20)
(3.64344 -0.504705 5.41537e-18)
(5.28617 -2.29236 -4.22416e-18)
(4.3314 -2.2279 0)
(4.21924 -1.56379 7.38534e-18)
(4.08829 -1.20811 -7.32595e-18)
(3.99351 -0.964692 1.363e-17)
(3.92239 -0.790432 -3.37539e-18)
(3.86696 -0.661311 9.61021e-18)
(3.82166 -0.562807 -1.21222e-17)
(3.78352 -0.483505 5.94613e-18)
(3.71981 -0.460978 -1.67397e-17)
(5.63434 -2.11802 4.68513e-18)
(4.66781 -2.05813 0)
(4.45455 -1.44389 -7.38641e-18)
(4.26933 -1.11497 3.33344e-18)
(4.13725 -0.889676 -3.53625e-18)
(4.03937 -0.728003 0)
(3.96425 -0.607561 -3.0033e-18)
(3.90452 -0.514757 2.7929e-18)
(3.85627 -0.439095 -1.22007e-17)
(3.7932 -0.416557 -2.66425e-19)
(5.95104 -1.89098 2.31179e-18)
(4.97395 -1.83738 -6.33245e-18)
(4.66866 -1.28832 -2.61388e-18)
(4.43409 -0.994362 4.44803e-18)
(4.26822 -0.79286 0)
(4.14629 -0.648021 3.85921e-18)
(4.05363 -0.539732 -1.04748e-17)
(3.98114 -0.455886 3.10933e-18)
(3.92373 -0.387301 6.25466e-18)
(3.86041 -0.367372 5.9394e-18)
(6.22859 -1.6169 -9.98181e-18)
(5.24225 -1.57103 4.89472e-18)
(4.85622 -1.1009 4.70569e-18)
(4.57838 -0.84927 -4.44868e-18)
(4.38306 -0.676745 0)
(4.24023 -0.552599 4.11563e-18)
(4.13238 -0.459554 -3.75741e-18)
(4.04881 -0.387373 -1.25468e-19)
(3.98321 -0.328338 -3.44456e-18)
(3.91925 -0.311899 6.31588e-18)
(6.46037 -1.30257 5.54447e-18)
(5.46597 -1.26552 0)
(5.01244 -0.886119 0)
(4.69859 -0.68326 -2.71074e-18)
(4.47881 -0.544209 2.54897e-18)
(4.31861 -0.444043 2.18984e-18)
(4.19818 -0.368863 -6.15413e-18)
(4.10538 -0.310522 0)
(4.03281 -0.262861 -6.81326e-20)
(3.96815 -0.250141 -6.7125e-18)
(6.64107 -0.955462 9.48749e-19)
(5.6394 -0.928071 -8.02132e-19)
(5.1334 -0.649155 0)
(4.79167 -0.500403 3.89605e-18)
(4.55294 -0.398408 -6.20865e-18)
(4.37934 -0.324877 0)
(4.24918 -0.269691 8.4978e-18)
(4.14923 -0.226851 4.05045e-18)
(4.07117 -0.191888 -3.79237e-18)
(4.0059 -0.182891 6.86838e-18)
(6.76642 -0.583694 0)
(5.75783 -0.567144 -9.44031e-19)
(5.21585 -0.396106 -7.36704e-20)
(4.85507 -0.305251 -2.27388e-18)
(4.60341 -0.242926 2.59832e-18)
(4.42073 -0.198019 0)
(4.28397 -0.164323 -2.19545e-18)
(4.17912 -0.138145 -2.03644e-18)
(4.0973 -0.116795 0)
(4.03159 -0.111435 9.27181e-19)
(6.83394 -0.19657 1.80849e-32)
(5.81791 -0.191138 -5.16411e-19)
(5.2576 -0.133299 2.17473e-18)
(4.88711 -0.102664 1.13971e-18)
(4.62894 -0.0816207 -3.59313e-19)
(4.44169 -0.0665165 6.48073e-19)
(4.3016 -0.0551724 0)
(4.19427 -0.0463551 9.95377e-34)
(4.11053 -0.0391604 -5.0803e-19)
(4.04461 -0.0373573 -4.54183e-19)
(1.87584 -0.19795 1.49089e-19)
(1.02816 -0.193249 -2.59975e-20)
(1.90619 -0.134571 1.33916e-19)
(2.30855 -0.103547 2.95311e-19)
(2.58151 -0.0823962 1.30914e-19)
(2.77659 -0.0672807 -1.83318e-19)
(2.92172 -0.0560943 0)
(3.03302 -0.0475785 -4.14093e-34)
(3.12047 -0.0409507 2.45456e-19)
(3.19186 -0.0357091 -7.03739e-19)
(1.93746 -0.581654 0)
(1.08771 -0.564983 -4.52474e-20)
(1.94735 -0.395593 -1.19818e-19)
(2.34023 -0.305286 -1.73063e-19)
(2.6067 -0.243527 7.35103e-19)
(2.79712 -0.199254 0)
(2.93875 -0.166349 -9.16095e-19)
(3.04736 -0.141227 -9.48438e-19)
(3.13262 -0.121657 0)
(3.2037 -0.105984 4.75189e-19)
(2.05846 -0.952356 3.54715e-19)
(1.20485 -0.9245 -3.0001e-19)
(2.0289 -0.647935 0)
(2.40295 -0.500208 1.49145e-18)
(2.65653 -0.399105 -2.58182e-18)
(2.8377 -0.326583 0)
(2.97244 -0.272671 2.79499e-18)
(3.07573 -0.23149 -1.05172e-18)
(3.15665 -0.199389 3.80723e-18)
(3.22708 -0.173088 1.94957e-18)
(2.23576 -1.29904 -4.04233e-18)
(1.37652 -1.26083 0)
(2.1487 -0.884241 0)
(2.4951 -0.682817 -1.88448e-18)
(2.72975 -0.544868 2.19835e-18)
(2.89733 -0.445915 -9.69229e-19)
(3.02195 -0.372339 -9.93889e-19)
(3.11745 -0.316066 0)
(3.19202 -0.272201 -1.95519e-18)
(3.26143 -0.235006 -1.9493e-18)
(2.46483 -1.61325 7.67866e-18)
(1.5984 -1.56589 -3.59535e-19)
(2.3037 -1.09874 7.98205e-19)
(2.61436 -0.848622 -1.41671e-18)
(2.82453 -0.677284 0)
(2.97453 -0.554383 -2.02372e-18)
(3.08608 -0.462936 1.84758e-18)
(3.17157 -0.392924 4.17046e-18)
(3.23799 -0.338342 2.24305e-18)
(3.30597 -0.289843 -3.90423e-18)
(2.73987 -1.88729 -4.95881e-18)
(1.86489 -1.83224 9.56709e-19)
(2.48999 -1.28614 -9.71648e-19)
(2.75774 -0.993549 1.4165e-18)
(2.93847 -0.79314 0)
(3.06737 -0.649354 -2.12938e-18)
(3.16327 -0.542322 -2.31282e-18)
(3.23682 -0.460305 2.23471e-18)
(3.2936 -0.396297 4.27625e-18)
(3.35984 -0.335891 4.21944e-18)
(3.05387 -2.11439 -5.15022e-18)
(2.16927 -2.05336 0)
(2.7029 -1.44185 -1.85223e-18)
(2.92163 -1.11411 4.9027e-18)
(3.06871 -0.889617 -5.89251e-18)
(3.17347 -0.728564 0)
(3.25156 -0.608721 2.04706e-18)
(3.31168 -0.516788 -1.89972e-18)
(3.35781 -0.444898 -8.72382e-18)
(3.42226 -0.371786 1.50926e-19)
(3.39882 -2.28895 5.28498e-18)
(2.50395 -2.22407 3.65282e-19)
(2.93722 -1.56219 2.62029e-18)
(3.10197 -1.20737 -3.62721e-18)
(3.21192 -0.964375 8.68059e-18)
(3.29008 -0.790147 2.39925e-18)
(3.3486 -0.660692 7.11006e-18)
(3.39423 -0.561379 -1.36458e-17)
(3.42941 -0.483571 4.44755e-18)
(3.49302 -0.396667 -8.91071e-18)
(3.76582 -2.40679 -2.01125e-18)
(2.86067 -2.34033 -7.53217e-19)
(3.1871 -1.64429 -3.29452e-18)
(3.29427 -1.27105 -4.65822e-18)
(3.36454 -1.01549 -4.53567e-18)
(3.4141 -0.832601 -5.07294e-18)
(3.45155 -0.69713 0)
(3.48195 -0.59359 -5.23987e-18)
(3.50672 -0.51282 9.47701e-18)
(3.57319 -0.410764 4.53942e-18)
(4.14602 -2.46583 2.40649e-18)
(3.2317 -2.40083 9.82782e-19)
(3.44705 -1.6868 3.09506e-18)
(3.49421 -1.30387 1.97295e-18)
(3.52291 -1.04189 2.40171e-18)
(3.54226 -0.854855 5.07309e-18)
(3.55705 -0.71707 0)
(3.57093 -0.613391 4.97834e-18)
(3.58699 -0.535658 -4.86062e-18)
(3.67026 -0.419463 0)
(3.29086 -0.0248642 -1.36895e-19)
(3.39756 -0.014202 1.45675e-19)
(3.45884 -0.00881494 0)
(3.49728 -0.00581391 0)
(3.52279 -0.00402497 0)
(3.54052 -0.00289578 -1.98163e-19)
(3.55329 -0.0021483 1.86848e-19)
(3.56277 -0.00163352 0)
(3.56998 -0.00126789 9.77924e-20)
(3.57557 -0.00100635 -1.10215e-19)
(3.57995 -0.00079286 0)
(3.58345 -0.000637923 0)
(3.58628 -0.00051752 0)
(3.58858 -0.00042256 0)
(3.59046 -0.000346951 0)
(3.59201 -0.000286316 1.026e-19)
(3.59329 -0.000237088 2.65102e-22)
(3.59436 -0.000196852 -1.03125e-19)
(3.59525 -0.000163823 0)
(3.59599 -0.000136596 0)
(3.59662 -0.000114056 0)
(3.59714 -9.53366e-05 1.30538e-20)
(3.59758 -7.97344e-05 0)
(3.59796 -6.67115e-05 0)
(3.59827 -5.58247e-05 0)
(3.59854 -4.67083e-05 0)
(3.59876 -3.90642e-05 0)
(3.59895 -3.26484e-05 0)
(3.59911 -2.72625e-05 1.19116e-19)
(3.59925 -2.27357e-05 -2.1207e-19)
(3.59936 -1.89311e-05 -2.85093e-23)
(3.59946 -1.57321e-05 1.06353e-19)
(3.59954 -1.30458e-05 0)
(3.59961 -1.07883e-05 0)
(3.59967 -8.89309e-06 0)
(3.59972 -7.30163e-06 1.33734e-20)
(3.59976 -5.96796e-06 0)
(3.5998 -4.85041e-06 0)
(3.59983 -3.91801e-06 0)
(3.59986 -3.13994e-06 0)
(3.59988 -2.49491e-06 -1.0773e-19)
(3.5999 -1.95939e-06 9.43862e-20)
(3.59991 -1.51967e-06 0)
(3.59993 -1.15517e-06 -5.40824e-20)
(3.59994 -8.58225e-07 5.41531e-20)
(3.59995 -6.13422e-07 0)
(3.59996 -4.13992e-07 5.4299e-20)
(3.59996 -2.48885e-07 -5.43702e-20)
(3.59997 -1.13569e-07 -1.36107e-20)
(3.59997 -3.39777e-09 0)
(3.59998 8.40097e-08 5.4588e-20)
(3.59998 1.50571e-07 -5.466e-20)
(3.59998 2.00411e-07 5.47331e-20)
(3.59999 2.35016e-07 -5.48054e-20)
(3.59999 2.55848e-07 0)
(3.59999 2.66495e-07 5.49517e-20)
(3.59999 2.67496e-07 -5.50246e-20)
(3.59999 2.63165e-07 -5.50981e-20)
(3.59999 2.53256e-07 5.51714e-20)
(3.6 2.41348e-07 -5.52452e-20)
(3.6 2.268e-07 2.76594e-20)
(3.6 2.10899e-07 2.76965e-20)
(3.6 1.93607e-07 -1.38668e-20)
(3.6 1.76113e-07 0)
(3.6 1.5713e-07 0)
(3.6 1.37676e-07 0)
(3.6 1.17662e-07 0)
(3.6 9.8272e-08 2.79205e-20)
(3.6 7.86812e-08 -2.79581e-20)
(3.6 6.0339e-08 -4.19938e-20)
(3.6 4.28004e-08 2.80337e-20)
(3.6 2.69018e-08 1.40359e-20)
(3.6 1.19908e-08 -2.81098e-20)
(3.6 -1.32458e-09 1.4074e-20)
(3.6 -1.37123e-08 0)
(3.6 -2.55052e-08 0)
(3.6 -3.79609e-08 0)
(3.6 -5.0444e-08 0)
(3.59996 -9.54733e-08 -1.77105e-21)
(3.60004 -1.58327e-07 1.77347e-21)
(3.2962 -0.0742198 -3.19275e-19)
(3.40048 -0.0424689 2.7423e-19)
(3.46023 -0.0264225 2.07777e-20)
(3.498 -0.0174511 -3.76901e-19)
(3.52319 -0.0120913 3.32905e-19)
(3.54074 -0.00870359 1.16109e-20)
(3.55343 -0.00645868 -2.37139e-20)
(3.56286 -0.00491153 -3.88348e-19)
(3.57004 -0.00381175 3.88804e-19)
(3.5756 -0.00301795 4.09708e-19)
(3.57998 -0.00238553 -4.22775e-19)
(3.58347 -0.00191847 4.03823e-19)
(3.58629 -0.00155602 -4.043e-19)
(3.58859 -0.00127032 0)
(3.59047 -0.0010428 4.10633e-19)
(3.59202 -0.000860296 1.2601e-21)
(3.5933 -0.000712205 -8.26804e-19)
(3.59436 -0.000591227 3.88495e-19)
(3.59525 -0.000491891 2.60148e-20)
(3.596 -0.000409996 4.17744e-19)
(3.59662 -0.000342206 5.56549e-22)
(3.59714 -0.000285914 -4.3241e-19)
(3.59759 -0.00023903 -4.20679e-19)
(3.59796 -0.000199904 -3.4504e-22)
(3.59827 -0.000167189 4.22032e-19)
(3.59854 -0.000139801 -4.4952e-19)
(3.59876 -0.000116839 4.23593e-19)
(3.59895 -9.75756e-05 4.24501e-19)
(3.59911 -8.14063e-05 -1.31275e-20)
(3.59925 -6.78255e-05 -4.25681e-19)
(3.59936 -5.64172e-05 0)
(3.59946 -4.68362e-05 0)
(3.59954 -3.87933e-05 2.13828e-19)
(3.59961 -3.20425e-05 -4.2821e-19)
(3.59967 -2.63833e-05 2.14382e-19)
(3.59972 -2.16425e-05 -1.3418e-20)
(3.59976 -1.76772e-05 0)
(3.5998 -1.43652e-05 2.15263e-19)
(3.59983 -1.1609e-05 -2.42467e-19)
(3.59986 -9.31746e-06 0)
(3.59988 -7.42133e-06 0)
(3.5999 -5.85167e-06 1.35227e-20)
(3.59991 -4.56349e-06 2.16642e-19)
(3.59993 -3.49942e-06 -1.89794e-19)
(3.59994 -2.62857e-06 2.17188e-19)
(3.59995 -1.90452e-06 -2.17454e-19)
(3.59996 -1.30995e-06 0)
(3.59996 -8.14047e-07 0)
(3.59997 -4.03839e-07 1.36422e-20)
(3.59997 -7.29727e-08 2.18549e-19)
(3.59998 1.91627e-07 2.45898e-24)
(3.59998 3.90518e-07 -4.38187e-19)
(3.59998 5.39024e-07 2.19366e-19)
(3.59999 6.40314e-07 2.74551e-20)
(3.59999 7.02621e-07 0)
(3.59999 7.34622e-07 -1.10095e-19)
(3.59999 7.41314e-07 1.10232e-19)
(3.59999 7.32748e-07 -1.10371e-19)
(3.59999 7.10408e-07 1.10509e-19)
(3.6 6.81615e-07 0)
(3.6 6.46786e-07 2.76965e-20)
(3.6 6.06123e-07 1.10925e-19)
(3.6 5.61414e-07 -1.24948e-19)
(3.6 5.12063e-07 0)
(3.6 4.58842e-07 0)
(3.6 4.03475e-07 1.11485e-19)
(3.6 3.46959e-07 -1.11625e-19)
(3.6 2.92016e-07 0)
(3.6 2.38145e-07 0)
(3.6 1.88658e-07 1.40062e-20)
(3.6 1.42123e-07 -5.60959e-20)
(3.6 1.00466e-07 1.12334e-19)
(3.6 6.22609e-08 -2.81193e-20)
(3.6 2.75656e-08 -5.63101e-20)
(3.6 -4.90321e-09 0)
(3.6 -3.64888e-08 2.82269e-20)
(3.6 -7.04907e-08 0)
(3.6 -1.04406e-07 0)
(3.59996 -2.37002e-07 -7.08295e-21)
(3.60004 -4.24198e-07 7.09205e-21)
(3.30675 -0.122436 1.75812e-20)
(3.40627 -0.0702924 1.96045e-20)
(3.46302 -0.0439381 6.25924e-19)
(3.49945 -0.0290976 -6.67646e-19)
(3.52398 -0.0201935 2.28564e-20)
(3.5412 -0.0145497 8.05769e-19)
(3.5537 -0.0108029 -1.0312e-20)
(3.56302 -0.00821739 -7.74048e-19)
(3.57014 -0.00637665 -4.94202e-20)
(3.57568 -0.00503607 -4.99778e-20)
(3.58003 -0.004008 2.52267e-20)
(3.5835 -0.00321257 -5.08473e-20)
(3.58632 -0.00260492 7.69853e-19)
(3.58861 -0.00212634 -8.73381e-19)
(3.59048 -0.00174519 -5.17464e-20)
(3.59203 -0.00143958 8.32765e-19)
(3.59331 -0.00119161 -8.33629e-19)
(3.59437 -0.000989032 -2.61752e-20)
(3.59526 -0.000822719 -7.87684e-20)
(3.596 -0.000685616 5.2656e-20)
(3.59662 -0.000572141 5.2787e-20)
(3.59715 -0.00047792 5.2907e-20)
(3.59759 -0.000399468 5.30175e-20)
(3.59796 -0.000334006 0)
(3.59827 -0.000279278 0)
(3.59854 -0.000233465 2.66531e-20)
(3.59876 -0.000195065 0)
(3.59895 -0.000162857 0)
(3.59911 -0.000135824 0)
(3.59925 -0.000113125 -4.29057e-19)
(3.59936 -9.40641e-05 4.29509e-19)
(3.59946 -7.80612e-05 0)
(3.59954 -6.46308e-05 0)
(3.59961 -5.33619e-05 0)
(3.59967 -4.39201e-05 0)
(3.59972 -3.60144e-05 -4.32269e-19)
(3.59976 -2.94073e-05 -4.49319e-23)
(3.5998 -2.38926e-05 8.66502e-19)
(3.59983 -1.93069e-05 -4.06621e-19)
(3.59986 -1.54968e-05 -4.34252e-19)
(3.59988 -1.23466e-05 -2.39194e-23)
(3.5999 -9.74034e-06 8.70424e-19)
(3.59991 -7.60115e-06 -4.35687e-19)
(3.59993 -5.83404e-06 -2.72611e-20)
(3.59994 -4.38658e-06 -4.91245e-19)
(3.59995 -3.18305e-06 8.74272e-19)
(3.59996 -2.19319e-06 -4.3761e-19)
(3.59996 -1.36795e-06 0)
(3.59997 -6.86036e-07 0)
(3.59997 -1.36257e-07 1.64644e-19)
(3.59998 3.01475e-07 -2.19761e-19)
(3.59998 6.31391e-07 0)
(3.59998 8.76278e-07 0)
(3.59999 1.04409e-06 -2.756e-20)
(3.59999 1.14734e-06 -5.518e-20)
(3.59999 1.20137e-06 0)
(3.59999 1.21418e-06 -2.21201e-19)
(3.59999 1.20201e-06 -8.20615e-25)
(3.59999 1.16745e-06 1.66261e-19)
(3.6 1.12206e-06 0)
(3.6 1.06598e-06 1.94395e-19)
(3.6 1.00073e-06 -2.22408e-19)
(3.6 9.2754e-07 2.78313e-20)
(3.6 8.46379e-07 -5.57235e-20)
(3.6 7.58793e-07 0)
(3.6 6.68042e-07 0)
(3.6 5.75016e-07 0)
(3.6 4.851e-07 -5.5968e-20)
(3.6 3.97416e-07 -1.12059e-19)
(3.6 3.17267e-07 -5.84332e-26)
(3.6 2.42176e-07 2.24611e-19)
(3.6 1.75101e-07 3.9241e-26)
(3.6 1.13501e-07 -8.44148e-20)
(3.6 5.76425e-08 0)
(3.6 5.35164e-09 5.64009e-20)
(3.6 -4.57226e-08 -8.46949e-20)
(3.6 -1.00741e-07 0)
(3.6 -1.54357e-07 -2.82906e-20)
(3.59996 -3.71211e-07 2.83217e-20)
(3.60004 -6.79006e-07 0)
(3.32233 -0.168747 3.64622e-20)
(3.41484 -0.0973725 0)
(3.46717 -0.0612917 8.5648e-20)
(3.50161 -0.0407537 7.30763e-19)
(3.52517 -0.0283517 -6.84865e-19)
(3.54189 -0.0204582 -1.46295e-23)
(3.55411 -0.0152035 8.348e-19)
(3.56328 -0.0115703 6.07659e-20)
(3.5703 -0.00897832 -7.48316e-19)
(3.57578 -0.00708137 1.01558e-19)
(3.58011 -0.00567585 -8.22763e-19)
(3.58356 -0.00452952 1.75533e-18)
(3.58635 -0.00367152 -1.61096e-18)
(3.58863 -0.00299632 9.38858e-19)
(3.5905 -0.00245867 5.2522e-20)
(3.59204 -0.00202789 5.27368e-20)
(3.59332 -0.00167829 5.29289e-20)
(3.59438 -0.00139266 -7.97348e-19)
(3.59527 -0.00115822 5.16676e-20)
(3.59601 -0.000964987 8.00031e-19)
(3.59663 -0.000805086 8.566e-19)
(3.59715 -0.000672336 -9.10913e-19)
(3.59759 -0.000561828 -9.13517e-19)
(3.59796 -0.000469639 1.72172e-18)
(3.59828 -0.000392584 6.0424e-22)
(3.59854 -0.00032809 -8.63224e-19)
(3.59876 -0.000274048 0)
(3.59895 -0.000228731 -8.65969e-19)
(3.59911 -0.000190701 1.73368e-18)
(3.59925 -0.000158778 -8.6771e-19)
(3.59936 -0.000131981 5.43013e-20)
(3.59946 -0.00010949 0)
(3.59954 -9.06191e-05 8.70728e-19)
(3.59961 -7.47916e-05 -1.68856e-18)
(3.59967 -6.1535e-05 5.43989e-20)
(3.59972 -5.04405e-05 9.27725e-19)
(3.59976 -4.11735e-05 -4.37033e-19)
(3.5998 -3.34426e-05 4.37394e-19)
(3.59983 -2.70166e-05 4.37827e-19)
(3.59986 -2.16803e-05 2.82545e-23)
(3.59988 -1.72694e-05 -4.38579e-19)
(3.5999 -1.36224e-05 -4.38987e-19)
(3.59991 -1.06278e-05 3.8443e-19)
(3.59993 -8.15475e-06 -5.49675e-20)
(3.59994 -6.12841e-06 -3.8511e-19)
(3.59995 -4.44485e-06 4.4049e-19)
(3.59996 -3.05964e-06 -5.5109e-20)
(3.59996 -1.90698e-06 0)
(3.59997 -9.5712e-07 -5.52028e-20)
(3.59997 -1.92048e-07 -3.86749e-19)
(3.59998 4.15042e-07 4.42367e-19)
(3.59998 8.72906e-07 0)
(3.59998 1.21197e-06 0)
(3.59999 1.44506e-06 -3.88056e-19)
(3.59999 1.58929e-06 4.99347e-19)
(3.59999 1.66545e-06 0)
(3.59999 1.68472e-06 0)
(3.59999 1.66932e-06 2.22494e-19)
(3.59999 1.62314e-06 5.56711e-20)
(3.6 1.56075e-06 -2.78586e-19)
(3.6 1.48271e-06 0)
(3.6 1.39219e-06 0)
(3.6 1.29008e-06 0)
(3.6 1.17678e-06 5.59056e-20)
(3.6 1.05488e-06 -2.23812e-19)
(3.6 9.29121e-07 -5.60004e-20)
(3.6 8.00415e-07 4.4838e-19)
(3.6 6.76033e-07 5.60952e-20)
(3.6 5.55391e-07 -2.2457e-19)
(3.6 4.45211e-07 0)
(3.6 3.42203e-07 0)
(3.6 2.50041e-07 0)
(3.6 1.65638e-07 0)
(3.6 8.89458e-08 -1.12763e-19)
(3.6 1.7169e-08 1.12859e-19)
(3.6 -5.26513e-08 5.64773e-20)
(3.6 -1.27588e-07 -5.65222e-20)
(3.6 -1.99258e-07 2.82832e-20)
(3.59996 -4.93763e-07 -2.83071e-20)
(3.60004 -9.13012e-07 0)
(3.34269 -0.212345 -3.73614e-20)
(3.42605 -0.123405 -1.31941e-18)
(3.47266 -0.0783983 1.31747e-18)
(3.5045 -0.0524103 1.49609e-18)
(3.52677 -0.036582 -1.54439e-18)
(3.54281 -0.0264517 1.52935e-18)
(3.55466 -0.0196827 -3.18635e-18)
(3.56362 -0.0149899 1.55752e-18)
(3.57052 -0.0116339 0)
(3.57592 -0.0091711 -1.77079e-18)
(3.58021 -0.00734453 2.50819e-18)
(3.58364 -0.00589289 -1.73954e-18)
(3.5864 -0.00476468 8.4649e-19)
(3.58867 -0.00388662 -5.33414e-20)
(3.59053 -0.00318819 -8.58708e-19)
(3.59206 -0.00262918 -5.64535e-20)
(3.59334 -0.0021754 8.08265e-19)
(3.59439 -0.00180465 0)
(3.59528 -0.00150043 0)
(3.59602 -0.00124975 0)
(3.59664 -0.00104235 -5.44858e-20)
(3.59716 -0.000870204 0)
(3.5976 -0.000726949 -8.75021e-19)
(3.59797 -0.000607473 1.75164e-18)
(3.59828 -0.000507633 -1.75386e-18)
(3.59854 -0.000424093 8.7768e-19)
(3.59877 -0.000354115 8.79096e-19)
(3.59896 -0.000295451 3.82876e-22)
(3.59912 -0.000246235 -1.76105e-18)
(3.59925 -0.00020494 8.81132e-19)
(3.59936 -0.000170287 -5.51239e-20)
(3.59946 -0.000141213 0)
(3.59954 -0.000116826 0)
(3.59961 -9.63821e-05 4.10939e-26)
(3.59967 -7.92656e-05 -5.5279e-20)
(3.59972 -6.49476e-05 -5.53142e-20)
(3.59976 -5.29927e-05 0)
(3.5998 -4.30262e-05 0)
(3.59983 -3.47439e-05 0)
(3.59986 -2.78698e-05 -8.87161e-19)
(3.59988 -2.21886e-05 -4.87818e-23)
(3.5999 -1.7494e-05 8.32599e-19)
(3.59991 -1.36377e-05 -8.33095e-19)
(3.59993 -1.04548e-05 9.44652e-19)
(3.59994 -7.84602e-06 3.89196e-19)
(3.59995 -5.68233e-06 -4.45021e-19)
(3.59996 -3.90276e-06 5.00924e-19)
(3.59996 -2.42585e-06 -9.4668e-19)
(3.59997 -1.21229e-06 5.57159e-19)
(3.59997 -2.36711e-07 -5.57454e-20)
(3.59998 5.34651e-07 0)
(3.59998 1.11648e-06 0)
(3.59998 1.5473e-06 -5.58323e-20)
(3.59999 1.84377e-06 -5.02751e-19)
(3.59999 2.02885e-06 -2.63897e-24)
(3.59999 2.12696e-06 8.3878e-19)
(3.59999 2.15344e-06 -8.95159e-19)
(3.59999 2.13467e-06 8.95619e-19)
(3.59999 2.07697e-06 -4.48039e-19)
(3.6 1.99703e-06 5.60337e-20)
(3.6 1.8965e-06 0)
(3.6 1.77939e-06 -5.60912e-20)
(3.6 1.64769e-06 2.2448e-19)
(3.6 1.50187e-06 -2.24595e-19)
(3.6 1.34607e-06 5.61776e-20)
(3.6 1.18557e-06 -1.68619e-19)
(3.6 1.0221e-06 2.24941e-19)
(3.6 8.64308e-07 -2.25057e-19)
(3.6 7.11617e-07 4.50344e-19)
(3.6 5.71838e-07 -5.06898e-19)
(3.6 4.41929e-07 2.25404e-19)
(3.6 3.25265e-07 0)
(3.6 2.18553e-07 -1.69227e-19)
(3.6 1.21403e-07 1.12876e-19)
(3.6 3.08864e-08 1.12934e-19)
(3.6 -5.71209e-08 -1.69488e-19)
(3.6 -1.50938e-07 0)
(3.6 -2.37925e-07 2.82736e-20)
(3.59996 -6.00288e-07 -4.24318e-20)
(3.60004 -1.11899e-06 1.41514e-20)
(3.36752 -0.252351 3.96881e-20)
(3.43971 -0.14809 1.36475e-18)
(3.47945 -0.0951546 -1.40752e-18)
(3.50809 -0.0640445 0)
(3.52876 -0.044894 4.89736e-20)
(3.54396 -0.0325503 0)
(3.55535 -0.0242623 1.65344e-18)
(3.56405 -0.0184964 -3.33089e-18)
(3.57079 -0.0143616 1.62471e-18)
(3.5761 -0.0113187 1.71298e-18)
(3.58033 -0.00903118 -1.76688e-18)
(3.58373 -0.00730505 0)
(3.58647 -0.00590014 -1.74687e-18)
(3.58872 -0.00480501 1.80176e-18)
(3.59056 -0.0039393 1.76146e-18)
(3.59209 -0.0032479 -4.96407e-20)
(3.59336 -0.00268646 -1.82261e-18)
(3.59441 -0.0022278 0)
(3.59529 -0.0018516 -5.55621e-20)
(3.59603 -0.00154168 -1.78258e-18)
(3.59665 -0.00128535 1.78275e-18)
(3.59717 -0.00107267 -5.58254e-20)
(3.59761 -0.000895742 8.94649e-19)
(3.59797 -0.000748223 -5.52027e-20)
(3.59829 -0.000624996 6.32899e-22)
(3.59855 -0.000521926 5.39393e-22)
(3.59877 -0.000435621 -8.9691e-19)
(3.59896 -0.000363296 5.61041e-20)
(3.59912 -0.000302647 0)
(3.59925 -0.00025178 -5.61569e-20)
(3.59937 -0.000209111 -8.98972e-19)
(3.59946 -0.000173327 1.79832e-18)
(3.59955 -0.000143325 -8.43137e-19)
(3.59961 -0.000118188 8.43537e-19)
(3.59967 -9.71515e-05 -1.85608e-18)
(3.59972 -7.95639e-05 1.80025e-18)
(3.59977 -6.48849e-05 9.36203e-23)
(3.5998 -5.26561e-05 7.98334e-23)
(3.59983 -4.24959e-05 -9.00615e-19)
(3.59986 -3.40686e-05 -9.00828e-19)
(3.59988 -2.71036e-05 9.00915e-19)
(3.5999 -2.13529e-05 5.63171e-20)
(3.59991 -1.66256e-05 0)
(3.59993 -1.27283e-05 0)
(3.59994 -9.53275e-06 9.57787e-19)
(3.59995 -6.88861e-06 -9.01535e-19)
(3.59996 -4.71611e-06 0)
(3.59996 -2.91897e-06 9.58126e-19)
(3.59997 -1.44736e-06 -9.5822e-19)
(3.59997 -2.67048e-07 5.63725e-20)
(3.59998 6.62078e-07 4.51032e-19)
(3.59998 1.36317e-06 -4.51076e-19)
(3.59998 1.88328e-06 -3.94737e-19)
(3.59999 2.24117e-06 4.51171e-19)
(3.59999 2.46629e-06 4.5122e-19)
(3.59999 2.58606e-06 5.64104e-20)
(3.59999 2.62042e-06 1.91929e-24)
(3.59999 2.59803e-06 -4.51356e-19)
(3.59999 2.52874e-06 0)
(3.6 2.43036e-06 -4.51447e-19)
(3.6 2.30646e-06 4.51491e-19)
(3.6 2.16107e-06 5.6442e-20)
(3.6 1.9991e-06 0)
(3.6 1.82065e-06 0)
(3.6 1.63116e-06 3.95211e-19)
(3.6 1.43629e-06 -4.51714e-19)
(3.6 1.23951e-06 0)
(3.6 1.04905e-06 0)
(3.6 8.65799e-07 2.25923e-19)
(3.6 6.97239e-07 -1.69459e-19)
(3.6 5.41236e-07 -2.25967e-19)
(3.6 4.00815e-07 2.25989e-19)
(3.6 2.72518e-07 5.65028e-20)
(3.6 1.55432e-07 -1.13017e-19)
(3.6 4.66258e-08 -1.48912e-26)
(3.6 -5.86317e-08 1.69558e-19)
(3.6 -1.6975e-07 0)
(3.6 -2.69858e-07 -5.65231e-20)
(3.59996 -6.8711e-07 8.47922e-20)
(3.60004 -1.28662e-06 -2.82671e-20)
(3.39653 -0.287781 -1.46183e-18)
(3.45557 -0.171109 1.42285e-18)
(3.48748 -0.111425 -4.71986e-20)
(3.51238 -0.0756136 1.59931e-18)
(3.53115 -0.053287 -3.24414e-18)
(3.54534 -0.0387702 1.59278e-18)
(3.55618 -0.0289636 0)
(3.56457 -0.0221112 0)
(3.57112 -0.0171812 5.4572e-20)
(3.57632 -0.0135431 -1.71581e-18)
(3.58047 -0.0107983 1.82576e-18)
(3.58383 -0.00872071 -1.79466e-18)
(3.58656 -0.00708233 1.79392e-18)
(3.58878 -0.00577515 -5.64768e-20)
(3.59061 -0.00472002 0)
(3.59212 -0.00388941 5.68521e-20)
(3.59338 -0.00321561 5.69916e-20)
(3.59443 -0.00266532 0)
(3.59531 -0.00221425 5.71993e-20)
(3.59604 -0.00184279 0)
(3.59666 -0.00153569 0)
(3.59718 -0.00128101 5.73834e-20)
(3.59761 -0.00106921 0)
(3.59798 -0.000892689 1.14897e-19)
(3.59829 -0.000745304 1.83961e-18)
(3.59855 -0.000622087 -3.62135e-18)
(3.59878 -0.000518956 -9.47255e-22)
(3.59896 -0.000432572 1.78193e-18)
(3.59912 -0.000360169 9.20083e-19)
(3.59926 -0.000299475 -8.62217e-19)
(3.59937 -0.000248589 0)
(3.59947 -0.000205937 -9.19716e-19)
(3.59955 -0.000170195 -5.76463e-20)
(3.59962 -0.000140269 9.1915e-19)
(3.59968 -0.000115235 5.74376e-20)
(3.59972 -9.4319e-05 0)
(3.59977 -7.68716e-05 5.74051e-20)
(3.5998 -6.23456e-05 -9.18233e-19)
(3.59983 -5.02796e-05 -6.93661e-23)
(3.59986 -4.02785e-05 -5.90832e-23)
(3.59988 -3.20137e-05 9.17245e-19)
(3.5999 -2.51953e-05 0)
(3.59991 -1.9588e-05 9.16632e-19)
(3.59993 -1.49701e-05 -9.16261e-19)
(3.59994 -1.11838e-05 0)
(3.59995 -8.05921e-06 -9.156e-19)
(3.59996 -5.49543e-06 1.83048e-18)
(3.59996 -3.38288e-06 -9.14879e-19)
(3.59997 -1.65932e-06 -5.71583e-20)
(3.59997 -2.80216e-07 0)
(3.59998 7.99724e-07 0)
(3.59998 1.61507e-06 0)
(3.59998 2.22087e-06 9.13103e-19)
(3.59999 2.63809e-06 -9.12735e-19)
(3.59999 2.9023e-06 0)
(3.59999 3.04332e-06 -4.56008e-19)
(3.59999 3.08576e-06 5.69762e-20)
(3.59999 3.0592e-06 -1.6316e-24)
(3.59999 2.97785e-06 4.55461e-19)
(3.6 2.8599e-06 0)
(3.6 2.71142e-06 0)
(3.6 2.53644e-06 0)
(3.6 2.34331e-06 0)
(3.6 2.13206e-06 4.54553e-19)
(3.6 1.9095e-06 -5.11166e-19)
(3.6 1.68089e-06 0)
(3.6 1.4518e-06 0)
(3.6 1.23006e-06 0)
(3.6 1.01779e-06 -2.26822e-19)
(3.6 8.21487e-07 2.26731e-19)
(3.6 6.40316e-07 0)
(3.6 4.76609e-07 0)
(3.6 3.27317e-07 5.66148e-20)
(3.6 1.90969e-07 0)
(3.6 6.4938e-08 0)
(3.6 -5.66951e-08 0)
(3.6 -1.83868e-07 5.65211e-20)
(3.6 -2.9532e-07 -5.64947e-20)
(3.59996 -7.51116e-07 0)
(3.60004 -1.40793e-06 0)
(3.42957 -0.317469 4.39692e-20)
(3.47333 -0.192181 -4.68149e-20)
(3.49667 -0.127042 4.93509e-20)
(3.51734 -0.0870573 -1.67193e-18)
(3.53393 -0.0617567 1.61716e-18)
(3.54696 -0.0451311 5.43103e-20)
(3.55715 -0.0338136 1.78448e-18)
(3.56517 -0.0258615 -1.78262e-18)
(3.57151 -0.0201171 0)
(3.57657 -0.0158656 1.78551e-18)
(3.58064 -0.0126513 -1.84093e-18)
(3.58394 -0.0101869 5.8114e-20)
(3.58664 -0.00828708 0)
(3.58884 -0.00677054 1.87996e-18)
(3.59066 -0.00556434 -3.70431e-18)
(3.59216 -0.00457244 -5.97513e-21)
(3.59341 -0.00377088 1.94623e-18)
(3.59445 -0.00312233 0)
(3.59533 -0.00259212 -1.89619e-18)
(3.59606 -0.00215598 1.89424e-18)
(3.59667 -0.00179566 0)
(3.59719 -0.00149701 5.92864e-20)
(3.59762 -0.00124878 5.92891e-20)
(3.59799 -0.001042 -5.92836e-20)
(3.5983 -0.00086946 -5.92677e-20)
(3.59856 -0.000725287 -1.95567e-18)
(3.59878 -0.000604686 3.84917e-18)
(3.59897 -0.000503726 -1.89353e-18)
(3.59913 -0.000419161 5.91505e-20)
(3.59926 -0.000348314 -5.91107e-20)
(3.59937 -0.000288952 0)
(3.59947 -0.000239225 0)
(3.59955 -0.000197582 0)
(3.59962 -0.000162739 0)
(3.59968 -0.000133608 9.42077e-19)
(3.59973 -0.000109286 1.15072e-22)
(3.59977 -8.90092e-05 -9.40288e-19)
(3.5998 -7.21405e-05 -9.3952e-19)
(3.59983 -5.81328e-05 -7.09225e-23)
(3.59986 -4.65294e-05 9.37698e-19)
(3.59988 -3.6943e-05 0)
(3.5999 -2.90403e-05 0)
(3.59991 -2.25408e-05 0)
(3.59993 -1.71947e-05 9.34157e-19)
(3.59994 -1.28126e-05 -9.91548e-19)
(3.59995 -9.20713e-06 9.90606e-19)
(3.59996 -6.25394e-06 -1.86283e-18)
(3.59996 -3.82996e-06 8.72335e-19)
(3.59997 -1.86002e-06 9.87692e-19)
(3.59997 -2.84043e-07 1.19437e-23)
(3.59998 9.40613e-07 -9.27752e-19)
(3.59998 1.86605e-06 -9.26847e-19)
(3.59998 2.55419e-06 9.25926e-19)
(3.59999 3.02919e-06 -5.78136e-20)
(3.59999 3.33148e-06 -5.77565e-20)
(3.59999 3.49301e-06 -9.23195e-19)
(3.59999 3.54333e-06 8.06995e-19)
(3.59999 3.51227e-06 -5.18273e-19)
(3.59999 3.41817e-06 5.17761e-19)
(3.6 3.27975e-06 4.02307e-19)
(3.6 3.10574e-06 -5.16742e-19)
(3.6 2.90133e-06 0)
(3.6 2.67648e-06 0)
(3.6 2.43284e-06 0)
(3.6 2.17793e-06 -4.00334e-19)
(3.6 1.91678e-06 3.99941e-19)
(3.6 1.65675e-06 -5.70784e-20)
(3.6 1.40518e-06 4.5618e-19)
(3.6 1.16526e-06 -6.83601e-19)
(3.6 9.42398e-07 1.70733e-19)
(3.6 7.37132e-07 0)
(3.6 5.51041e-07 1.704e-19)
(3.6 3.81744e-07 -5.67446e-19)
(3.6 2.27201e-07 5.10204e-19)
(3.6 8.46521e-08 -2.26537e-19)
(3.6 -5.20677e-08 0)
(3.6 -1.93773e-07 1.13042e-19)
(3.6 -3.14976e-07 -1.12924e-19)
(3.59996 -7.89709e-07 -5.64068e-20)
(3.60004 -1.47629e-06 0)
(3.46687 -0.338959 0)
(3.49269 -0.209912 -1.63923e-18)
(3.50695 -0.140784 1.6363e-18)
(3.52293 -0.0974802 1.76245e-18)
(3.53707 -0.0696597 -1.75922e-18)
(3.54879 -0.051165 -1.84493e-18)
(3.55825 -0.0384652 3.71588e-18)
(3.56585 -0.0294851 -1.8709e-18)
(3.57195 -0.0229677 0)
(3.57686 -0.0181283 -1.87117e-18)
(3.58084 -0.0144622 3.87077e-18)
(3.58408 -0.0116423 -2.00031e-18)
(3.58673 -0.00944681 0)
(3.58891 -0.00771783 1.96455e-18)
(3.59071 -0.00635154 -3.99092e-18)
(3.5922 -0.00521802 1.96496e-18)
(3.59344 -0.00430447 -6.15842e-20)
(3.59448 -0.0035636 1.97397e-18)
(3.59535 -0.00295722 -1.97045e-18)
(3.59608 -0.0024583 0)
(3.59669 -0.00204623 0)
(3.5972 -0.00170477 -6.15922e-20)
(3.59763 -0.00142107 -2.032e-18)
(3.598 -0.00118488 3.9356e-18)
(3.59831 -0.000987881 -1.90372e-18)
(3.59857 -0.000823359 -1.96431e-18)
(3.59879 -0.000685816 1.89956e-18)
(3.59897 -0.000570742 0)
(3.59913 -0.000474414 1.89548e-18)
(3.59926 -0.000393766 -1.89214e-18)
(3.59938 -0.000326237 0)
(3.59947 -0.000269713 1.948e-18)
(3.59955 -0.000222415 -1.94461e-18)
(3.59962 -0.000182874 0)
(3.59968 -0.000149845 0)
(3.59973 -0.000122295 0)
(3.59977 -9.93526e-05 -6.03907e-20)
(3.5998 -8.02873e-05 0)
(3.59983 -6.44737e-05 9.6313e-19)
(3.59986 -5.13923e-05 -9.61475e-19)
(3.59988 -4.05976e-05 -2.99974e-20)
(3.5999 -3.17131e-05 0)
(3.59991 -2.4416e-05 -9.86638e-19)
(3.59993 -1.84306e-05 1.91025e-18)
(3.59994 -1.35324e-05 -8.93917e-19)
(3.59995 -9.52033e-06 -8.92435e-20)
(3.59996 -6.24566e-06 0)
(3.59996 -3.57379e-06 9.78398e-19)
(3.59997 -1.41522e-06 -9.47145e-19)
(3.59997 3.08621e-07 0)
(3.59998 1.62716e-06 9.14487e-19)
(3.59998 2.61664e-06 -9.42397e-19)
(3.59998 3.34442e-06 -9.7023e-19)
(3.59999 3.83829e-06 9.97954e-19)
(3.59999 4.14199e-06 2.93027e-20)
(3.59999 4.2892e-06 9.36125e-19)
(3.59999 4.31437e-06 -8.76152e-19)
(3.59999 4.24798e-06 2.91565e-20)
(3.59999 4.11215e-06 -9.89677e-19)
(3.6 3.92594e-06 9.88033e-19)
(3.6 3.70074e-06 5.80234e-20)
(3.6 3.44366e-06 4.6342e-19)
(3.6 3.16561e-06 -2.89152e-20)
(3.6 2.86961e-06 -4.61891e-19)
(3.6 2.56392e-06 -2.88207e-20)
(3.6 2.25396e-06 5.75466e-20)
(3.6 1.94819e-06 -4.30891e-19)
(3.6 1.65281e-06 4.58864e-19)
(3.6 1.37293e-06 0)
(3.6 1.11273e-06 2.85853e-20)
(3.6 8.73795e-07 -2.28309e-19)
(3.6 6.5714e-07 2.84921e-20)
(3.6 4.60663e-07 2.84459e-19)
(3.6 2.82289e-07 -5.67994e-20)
(3.6 1.18735e-07 -2.83537e-20)
(3.6 -3.61911e-08 1.13231e-19)
(3.6 -1.94245e-07 -2.54344e-19)
(3.6 -3.29574e-07 1.12852e-19)
(3.59996 -7.95038e-07 2.81671e-20)
(3.60004 -1.48017e-06 0)
(3.50984 -0.370522 -1.69964e-18)
(3.51336 -0.245078 1.6949e-18)
(3.51813 -0.172572 0)
(3.529 -0.124366 0)
(3.54048 -0.0916072 -1.91945e-18)
(3.55076 -0.0688237 1.91409e-18)
(3.55943 -0.0526155 1.98485e-18)
(3.56658 -0.0408336 -1.97934e-18)
(3.57241 -0.0320969 0)
(3.57716 -0.025501 0)
(3.58104 -0.0204406 -2.05018e-18)
(3.58421 -0.0165071 2.04455e-18)
(3.58683 -0.0134167 0)
(3.58898 -0.0109632 0)
(3.59076 -0.00899135 0)
(3.59224 -0.00740723 0)
(3.59348 -0.0061191 0)
(3.59451 -0.00506589 0)
(3.59537 -0.00420209 -2.06852e-18)
(3.59609 -0.00349111 2.06296e-18)
(3.5967 -0.00290421 0)
(3.59721 -0.0024184 0)
(3.59764 -0.0020154 -2.05721e-18)
(3.59801 -0.00168046 -1.7529e-21)
(3.59831 -0.00140166 2.04806e-18)
(3.59857 -0.0011693 0)
(3.59879 -0.000975455 2.04107e-18)
(3.59898 -0.000813608 9.08866e-22)
(3.59914 -0.000678402 -2.03127e-18)
(3.59927 -0.000565406 -2.02739e-18)
(3.59938 -0.000470943 -5.56161e-22)
(3.59947 -0.000391971 2.01739e-18)
(3.59956 -0.000325951 0)