****************error_history****************
=====Test round 0=====
运行错误:


--> FOAM FATAL IO ERROR: (openfoam-2406 patch=241212)
Entry 'dimensions' not found in dictionary "0/p"


file: 0/p at line 9 to 35.

    From bool Foam::dimensionSet::readEntry(const Foam::word&, const Foam::dictionary&, Foam::IOobjectOption::readOption)
    in file dimensionSet/dimensionSetIO.C at line 442.

FOAM exiting


纠错方案：
修改文件constant/reactions
参考文件：
{
  "sample_file_0": "\nelements\n(\nO\nC\nH\nN\n);\n\n\nspecies\n(\n    O2\n    H2O\n    CH4\n    CO2\n    N2\n);\n\nreactions\n{\n    methaneReaction\n    {\n        type     irreversibleArrheniusReaction;\n        reaction \"CH4 + 2O2 = CO2 + 2H2O\";\n        A        5.2e16;\n        beta     0;\n        Ta       14906;\n    }\n}\n"
}
修改建议：


The error occurs because the 'species' entry is missing in 'constant/reactions'. Add 'species' and 'elements' sections at the root level, outside the 'reactions' subdictionary. Correction: Insert elements and species lists before the reactions block. Revise the file as:

FoamFile
{
    version     2.0;
    format      ascii;
    class       reaction;
    object      reactions;
}

elements
(
    O
    C
    H
    N
);

species
(
    O2
    H2O
    CH4
    CO2
    N2
);

reactions
{
    methaneReaction
    {
        type        irreversibleArrheniusReaction;
        reaction    "CH4 + 2O2 = CO2 + 2H2O";
        A           5.2e16;
        beta        0;
        Ta          14906;
    }
};
=====Test round 6=====
运行错误:


--> FOAM FATAL IO ERROR: (openfoam-2406 patch=241212)
Entry 'dimensions' not found in dictionary "0/p"


file: 0/p at line 9 to 35.

    From bool Foam::dimensionSet::readEntry(const Foam::word&, const Foam::dictionary&, Foam::IOobjectOption::readOption)
    in file dimensionSet/dimensionSetIO.C at line 442.

FOAM exiting


纠错方案：
修改文件0/p
参考文件：
{
  "sample_file_0": "FoamFile\n{\n    version     2.0;\n    format      ascii;\n    class       volScalarField;\n    object      p;\n}\n// * * * * * * * * * * * * * * * * * * * * * * * * * * * * * * * * * * * * * //\n\ndimensions      [1 -1 -2 0 0 0 0];\n\ninternalField   uniform 1e5;\n\nboundaryField\n{\n    \"(fuel|air)\"\n    {\n        type            zeroGradient;\n    }\n\n    outlet\n    {\n        type            totalPressure;\n        p0              $internalField;\n    }\n\n    frontAndBack\n    {\n        type            empty;\n    }\n}\n\n\n// ************************************************************************* //\n"
}
修改建议：


Step 1: Add the missing 'dimensions' entry in the 0/p file. The pressure field requires dimensional units. Insert this line after the FoamFile block header and before internalField:  
dimensions      [1 -1 -2 0 0 0 0];  

Step 2: Verify the corrected structure. The 'dimensions' entry must appear before internalField and boundaryField, with no conflicting entries in the file.  

Step 3: Ensure no other entries are removed/modified. The boundary conditions for "fuel", "air", "outlet", etc., align with the paper's JSON requirements and don't conflict with the error.  

Step 4: Retain all existing boundary conditions (zeroGradient on fuel/air, fixedValue on outlet) as specified in the paper. The error is purely due to the missing dimensions declaration.  

Step 5: Confirm no unrelated keywords (like mixture/specie) exist in 0/p. The file should only contain FoamFile header, dimensions, internalField, and boundaryField.
=====Test round 1=====
运行错误:


--> FOAM FATAL IO ERROR: (openfoam-2406 patch=241212)
Entry 'dimensions' not found in dictionary "0/T"


file: 0/T at line 9 to 37.

    From bool Foam::dimensionSet::readEntry(const Foam::word&, const Foam::dictionary&, Foam::IOobjectOption::readOption)
    in file dimensionSet/dimensionSetIO.C at line 442.

FOAM exiting


纠错方案：
修改文件0/p
参考文件：
{
  "sample_file_0": "FoamFile\n{\n    version     2.0;\n    format      ascii;\n    class       volScalarField;\n    object      p;\n}\n// * * * * * * * * * * * * * * * * * * * * * * * * * * * * * * * * * * * * * //\n\ndimensions      [1 -1 -2 0 0 0 0];\n\ninternalField   uniform 1e5;\n\nboundaryField\n{\n    \"(fuel|air)\"\n    {\n        type            zeroGradient;\n    }\n\n    outlet\n    {\n        type            totalPressure;\n        p0              $internalField;\n    }\n\n    frontAndBack\n    {\n        type            empty;\n    }\n}\n\n\n// ************************************************************************* //\n"
}
修改建议：


The error occurs because the 'dimensions' entry is missing in the 0/p file. Add the line "dimensions      [1 -1 -2 0 0 0 0];" immediately after the FoamFile block. This specifies pressure dimensions (kg/(m·s²)) without altering initial/boundary conditions. The corrected 0/p file should have:

FoamFile
{
    version     2.0;
    format      ascii;
    class       volScalarField;
    object      p;
}

dimensions      [1 -1 -2 0 0 0 0];

internalField   uniform 1e5;
boundaryField
{
    fuel
    {
        type            zeroGradient;
    }
    air
    {
        type            zeroGradient;
    }
    outlet
    {
        type            fixedValue;
        value           uniform 1e5;
    }
    frontAndBack
    {
        type            empty;
    }
    fluid-1
    {
        type            symmetryPlane;
    }
    interior-1
    {
        type            processor;
    }
}
=====Test round 7=====
运行错误:


--> FOAM FATAL IO ERROR: (openfoam-2406 patch=241212)
Entry 'dimensions' not found in dictionary "0/T"


file: 0/T at line 9 to 37.

    From bool Foam::dimensionSet::readEntry(const Foam::word&, const Foam::dictionary&, Foam::IOobjectOption::readOption)
    in file dimensionSet/dimensionSetIO.C at line 442.

FOAM exiting


纠错方案：
修改文件0/T
参考文件：
{
  "sample_file_0": "FoamFile\n{\n    version     2.0;\n    format      ascii;\n    class       volScalarField;\n    object      T;\n}\n// * * * * * * * * * * * * * * * * * * * * * * * * * * * * * * * * * * * * * //\n\ndimensions      [0 0 0 1 0 0 0];\n\ninternalField   uniform 2000;\n\nboundaryField\n{\n    \"(fuel|air)\"\n    {\n        type            fixedValue;\n        value           uniform 293;\n    }\n\n    outlet\n    {\n        type            inletOutlet;\n        inletValue      uniform 293;\n        value           uniform 293;\n    }\n\n    frontAndBack\n    {\n        type            empty;\n    }\n}\n\n\n// ************************************************************************* //\n"
}
修改建议：


Step 1: Add the missing mandatory 'dimensions' entry to 0/T. Insert "dimensions [0 0 0 1 0 0 0];" immediately after the FoamFile block (before internalField). This specifies temperature in Kelvins per OpenFOAM syntax. Step 2: Preserve all initial/boundary conditions from the paper - no changes to internalField uniform 2000 or boundaryField fixedValue 293 entries. Step 3: Verify the corrected 0/T structure matches tutorial format: FoamFile header -> dimensions -> internalField -> boundaryField.
=====Test round 2=====
运行错误:


--> FOAM FATAL IO ERROR: (openfoam-2406 patch=241212)
Entry 'CHEMKINFile' not found in dictionary "/home/ChatCFD_0527/run_chatcfd/Counterflow_Flame_2D_Laminar_0/constant/thermophysicalProperties"


file: constant/thermophysicalProperties at line 11 to 21.

    From bool Foam::dictionary::readEntry(const Foam::word&, T&, Foam::keyType::option, Foam::IOobjectOption::readOption) const [with T = Foam::fileName]
    in file ./src/OpenFOAM/lnInclude/dictionaryTemplates.C at line 327.

FOAM exiting


纠错方案：
修改文件0/T
参考文件：
{
  "sample_file_0": "FoamFile\n{\n    version     2.0;\n    format      ascii;\n    class       volScalarField;\n    object      T;\n}\n// * * * * * * * * * * * * * * * * * * * * * * * * * * * * * * * * * * * * * //\n\ndimensions      [0 0 0 1 0 0 0];\n\ninternalField   uniform 2000;\n\nboundaryField\n{\n    \"(fuel|air)\"\n    {\n        type            fixedValue;\n        value           uniform 293;\n    }\n\n    outlet\n    {\n        type            inletOutlet;\n        inletValue      uniform 293;\n        value           uniform 293;\n    }\n\n    frontAndBack\n    {\n        type            empty;\n    }\n}\n\n\n// ************************************************************************* //\n"
}
修改建议：


Step 1: Add missing dimensions entry for temperature. Insert 'dimensions [0 0 0 1 0 0 0];' after the FoamFile header block in 0/T. This defines temperature's units (Kelvin) and resolves the fatal IO error caused by the missing mandatory dimensions declaration. 

Step 2: Verify file structure matches volScalarField requirements. Place dimensions entry between FoamFile block and internalField without modifying boundary conditions. Final corrected header section:
FoamFile
{
    version     2.0;
    format      ascii;
    class       volScalarField;
    object      T;
}

dimensions      [0 0 0 1 0 0 0];

internalField   uniform 2000;

Step 3: Preserve all original boundaryField entries. Do not remove/alter fuel/air/outlet/frontAndBack/fluid-1/interior-1 blocks - their settings match the JSON-specified BC requirements and tutorial patterns. The error is purely dimensional, not BC-related.
=====Test round 8=====
运行错误:


--> FOAM FATAL IO ERROR: (openfoam-2406 patch=241212)
Entry 'CHEMKINFile' not found in dictionary "/home/ChatCFD_0527/run_chatcfd/Counterflow_Flame_2D_Laminar_0/constant/thermophysicalProperties"


file: constant/thermophysicalProperties at line 11 to 21.

    From bool Foam::dictionary::readEntry(const Foam::word&, T&, Foam::keyType::option, Foam::IOobjectOption::readOption) const [with T = Foam::fileName]
    in file ./src/OpenFOAM/lnInclude/dictionaryTemplates.C at line 327.

FOAM exiting


纠错方案：
修改文件constant/thermophysicalProperties
参考文件：
{
  "sample_file_0": "FoamFile\n{\n    version     2.0;\n    format      ascii;\n    class       dictionary;\n    object      thermophysicalProperties;\n}\n// * * * * * * * * * * * * * * * * * * * * * * * * * * * * * * * * * * * * * //\n\nthermoType\n{\n    type            hePsiThermo;\n    mixture         reactingMixture;\n    transport       sutherland;\n    thermo          janaf;\n    energy          sensibleEnthalpy;\n    equationOfState perfectGas;\n    specie          specie;\n}\n\ninertSpecie         N2;\n\nchemistryReader     foamChemistryReader;\n\nfoamChemistryFile   \"<constant>/reactions\";\n\nfoamChemistryThermoFile \"<constant>/thermo.compressibleGas\";\n\n\n// ************************************************************************* //\n"
}
修改建议：


To resolve the missing 'CHEMKINFile' entry error in 'constant/thermophysicalProperties': (1) Add the 'chemistryReader' keyword with value 'foamChemistryReader' under the root level. (2) Replace the 'mixture FOBilgerMixtureFraction;' line with 'reactingMixture'. (3) Add required paths: 'foamChemistryFile "<constant>/reactions";' and 'foamChemistryThermoFile "<constant>/thermo.compressibleGas";'. The corrected file should contain: 

FoamFile
{
    version     2.0;
    format      ascii;
    class       dictionary;
    object      thermophysicalProperties;
}

thermoType
{
    type            hePsiThermo;
    mixture        reactingMixture;
    transport      sutherland;
    thermo         janaf;
    energy         sensibleEnthalpy;
    equationOfState perfectGas;
    specie         specie;
}

chemistryReader    foamChemistryReader;
reactingMixture    reactingMixture;
foamChemistryFile  "<constant>/reactions";
foamChemistryThermoFile "<constant>/thermo.compressibleGas";
energy       sensibleEnthalpy;

The error occurs because the current setup expects chemical mechanism input through CHEMKIN format while the configuration requires native OpenFOAM chemistry files. The 'FOBilgerMixtureFraction' is incompatible with the thermoType's reactingMixture declaration and must be replaced. All modifications preserve the initial/boundary conditions.
=====Test round 9=====
运行错误:


--> FOAM FATAL IO ERROR: (openfoam-2406 patch=241212)
Entry 'Tlow' not found in dictionary "/home/ChatCFD_0527/run_chatcfd/Counterflow_Flame_2D_Laminar_0/constant/thermo.compressibleGas/CH4/thermodynamics"


file: constant/thermo.compressibleGas/CH4/thermodynamics at line 20 to 24.

    From bool Foam::dictionary::readEntry(const Foam::word&, T&, Foam::keyType::option, Foam::IOobjectOption::readOption) const [with T = double]
    in file ./src/OpenFOAM/lnInclude/dictionaryTemplates.C at line 327.

FOAM exiting


纠错方案：
修改文件constant/thermophysicalProperties
参考文件：
{
  "sample_file_0": "FoamFile\n{\n    version     2.0;\n    format      ascii;\n    class       dictionary;\n    object      thermophysicalProperties;\n}\n// * * * * * * * * * * * * * * * * * * * * * * * * * * * * * * * * * * * * * //\n\nthermoType\n{\n    type            hePsiThermo;\n    mixture         reactingMixture;\n    transport       sutherland;\n    thermo          janaf;\n    energy          sensibleEnthalpy;\n    equationOfState perfectGas;\n    specie          specie;\n}\n\ninertSpecie         N2;\n\nchemistryReader     foamChemistryReader;\n\nfoamChemistryFile   \"<constant>/reactions\";\n\nfoamChemistryThermoFile \"<constant>/thermo.compressibleGas\";\n\n\n// ************************************************************************* //\n"
}
修改建议：


Step-by-step fix: The error occurs because the thermophysicalProperties dictionary requires the 'CHEMKINFile' entry for reactingMixture with chemkin-formatted chemistry. Replace the mixture/reaction setup with foamChemistryReader. Remove conflicting 'mixture FOBilgerMixtureFraction' and add chemistryReader entries. 

1. Delete lines "mixture FOBilgerMixtureFraction;" and "reaction reactingMixture;" from constant/thermophysicalProperties.
2. Insert after thermoType block:
inertSpecie N2;
chemistryReader foamChemistryReader;
foamChemistryFile "<constant>/reactions";
foamChemistryThermoFile "<constant>/thermo.compressibleGas";
3. Ensure reaction definitions exist in constant/reactions and thermo data in constant/thermo.compressibleGas. This resolves the missing CHEMKINFile dependency while maintaining species boundaries via native OpenFOAM chemistry.
=====Test round 3=====
运行错误:


--> FOAM FATAL IO ERROR: (openfoam-2406 patch=241212)
Entry 'Tlow' not found in dictionary "/home/ChatCFD_0527/run_chatcfd/Counterflow_Flame_2D_Laminar_0/constant/thermo.compressibleGas/CH4/thermodynamics"


file: constant/thermo.compressibleGas/CH4/thermodynamics at line 20 to 24.

    From bool Foam::dictionary::readEntry(const Foam::word&, T&, Foam::keyType::option, Foam::IOobjectOption::readOption) const [with T = double]
    in file ./src/OpenFOAM/lnInclude/dictionaryTemplates.C at line 327.

FOAM exiting


纠错方案：
修改文件constant/thermo.compressibleGas
参考文件：
{
  "sample_file_0": "FoamFile\n{\n    version     2.0;\n    format      ascii;\n    class       dictionary;\n    object      thermo.compressibleGas;\n}\n// * * * * * * * * * * * * * * * * * * * * * * * * * * * * * * * * * * * * * //\n\nO2\n{\n    specie\n    {\n        molWeight       31.9988;\n    }\n    elements\n    {\n        O       2;\n    }\n    thermodynamics\n    {\n        Tlow            200;\n        Thigh           5000;\n        Tcommon         1000;\n        highCpCoeffs    ( 3.69758 0.00061352 -1.25884e-07 1.77528e-11 -1.13644e-15 -1233.93 3.18917 );\n        lowCpCoeffs     ( 3.21294 0.00112749 -5.75615e-07 1.31388e-09 -8.76855e-13 -1005.25 6.03474 );\n    }\n    transport\n    {\n        As              1.67212e-06;\n        Ts              170.672;\n    }\n}\n\nH2O\n{\n    specie\n    {\n        molWeight       18.0153;\n    }\n    elements\n    {\n        O       1;\n        H       2;\n    }\n    thermodynamics\n    {\n        Tlow            200;\n        Thigh           5000;\n        Tcommon         1000;\n        highCpCoeffs    ( 2.67215 0.00305629 -8.73026e-07 1.201e-10 -6.39162e-15 -29899.2 6.86282 );\n        lowCpCoeffs     ( 3.38684 0.00347498 -6.3547e-06 6.96858e-09 -2.50659e-12 -30208.1 2.59023 );\n    }\n    transport\n    {\n        As              1.67212e-06;\n        Ts              170.672;\n    }\n}\n\nCH4\n{\n    specie\n    {\n        molWeight       16.0428;\n    }\n    elements\n    {\n        C       1;\n        H       4;\n    }\n    thermodynamics\n    {\n        Tlow            200;\n        Thigh           6000;\n        Tcommon         1000;\n        highCpCoeffs    ( 1.63543 0.0100844 -3.36924e-06 5.34973e-10 -3.15528e-14 -10005.6 9.9937 );\n        lowCpCoeffs     ( 5.14988 -0.013671 4.91801e-05 -4.84744e-08 1.66694e-11 -10246.6 -4.64132 );\n    }\n    transport\n    {\n        As              1.67212e-06;\n        Ts              170.672;\n    }\n}\n\nCO2\n{\n    specie\n    {\n        molWeight       44.01;\n    }\n    elements\n    {\n        C       1;\n        O       2;\n    }\n    thermodynamics\n    {\n        Tlow            200;\n        Thigh           5000;\n        Tcommon         1000;\n        highCpCoeffs    ( 4.45362 0.00314017 -1.27841e-06 2.394e-10 -1.66903e-14 -48967 -0.955396 );\n        lowCpCoeffs     ( 2.27572 0.00992207 -1.04091e-05 6.86669e-09 -2.11728e-12 -48373.1 10.1885 );\n    }\n    transport\n    {\n        As              1.67212e-06;\n        Ts              170.672;\n    }\n}\n\nN2\n{\n    specie\n    {\n        molWeight       28.0134;\n    }\n    elements\n    {\n        N       2;\n    }\n    thermodynamics\n    {\n        Tlow            200;\n        Thigh           5000;\n        Tcommon         1000;\n        highCpCoeffs    ( 2.92664 0.00148798 -5.68476e-07 1.0097e-10 -6.75335e-15 -922.798 5.98053 );\n        lowCpCoeffs     ( 3.29868 0.00140824 -3.96322e-06 5.64152e-09 -2.44486e-12 -1020.9 3.95037 );\n    }\n    transport\n    {\n        As              1.67212e-06;\n        Ts              170.672;\n    }\n}\n\n\n// ************************************************************************* //\n"
}
修改建议：


Step 1: Identify incorrect capitalization in thermodynamics entries. The error occurs because OpenFOAM expects lowercase 'Tlow' but the file uses 'TLow'. 

Step 2: Replace all 'TLow' entries with 'Tlow' in every species (CH4, O2, CO2, H2O, N2) under their respective thermodynamics subdictionaries.

Step 3: Correct 'THigh' to 'Thigh' in all thermodynamics subdictionaries to match OpenFOAM's case-sensitive keyword requirements.

Step 4: Verify 'TCommon' should be 'Tcommon' (lowercase 'c') as per tutorial examples. Replace all 'TCommon' entries with 'Tcommon'.

Step 5: Ensure Cp coefficients and transport properties remain unchanged to preserve initial/boundary conditions. No removal of entries is required - all keywords belong in thermo.compressibleGas for compressible gas definitions.
=====Test round 10=====
运行错误:


--> FOAM FATAL IO ERROR: (openfoam-2406 patch=241212)
Specie O2 does not contain "elements" description.

file: constant/thermo.compressibleGas at line 13 to 115.

    From void Foam::foamChemistryReader<ThermoType>::readSpeciesComposition() [with ThermoType = Foam::sutherlandTransport<Foam::species::thermo<Foam::janafThermo<Foam::perfectGas<Foam::specie> >, Foam::sensibleEnthalpy> >]
    in file lnInclude/foamChemistryReader.C at line 83.

FOAM exiting


纠错方案：
修改文件constant/thermo.compressibleGas
参考文件：
{
  "sample_file_0": "FoamFile\n{\n    version     2.0;\n    format      ascii;\n    class       dictionary;\n    object      thermo.compressibleGas;\n}\n// * * * * * * * * * * * * * * * * * * * * * * * * * * * * * * * * * * * * * //\n\nO2\n{\n    specie\n    {\n        molWeight       31.9988;\n    }\n    elements\n    {\n        O       2;\n    }\n    thermodynamics\n    {\n        Tlow            200;\n        Thigh           5000;\n        Tcommon         1000;\n        highCpCoeffs    ( 3.69758 0.00061352 -1.25884e-07 1.77528e-11 -1.13644e-15 -1233.93 3.18917 );\n        lowCpCoeffs     ( 3.21294 0.00112749 -5.75615e-07 1.31388e-09 -8.76855e-13 -1005.25 6.03474 );\n    }\n    transport\n    {\n        As              1.67212e-06;\n        Ts              170.672;\n    }\n}\n\nH2O\n{\n    specie\n    {\n        molWeight       18.0153;\n    }\n    elements\n    {\n        O       1;\n        H       2;\n    }\n    thermodynamics\n    {\n        Tlow            200;\n        Thigh           5000;\n        Tcommon         1000;\n        highCpCoeffs    ( 2.67215 0.00305629 -8.73026e-07 1.201e-10 -6.39162e-15 -29899.2 6.86282 );\n        lowCpCoeffs     ( 3.38684 0.00347498 -6.3547e-06 6.96858e-09 -2.50659e-12 -30208.1 2.59023 );\n    }\n    transport\n    {\n        As              1.67212e-06;\n        Ts              170.672;\n    }\n}\n\nCH4\n{\n    specie\n    {\n        molWeight       16.0428;\n    }\n    elements\n    {\n        C       1;\n        H       4;\n    }\n    thermodynamics\n    {\n        Tlow            200;\n        Thigh           6000;\n        Tcommon         1000;\n        highCpCoeffs    ( 1.63543 0.0100844 -3.36924e-06 5.34973e-10 -3.15528e-14 -10005.6 9.9937 );\n        lowCpCoeffs     ( 5.14988 -0.013671 4.91801e-05 -4.84744e-08 1.66694e-11 -10246.6 -4.64132 );\n    }\n    transport\n    {\n        As              1.67212e-06;\n        Ts              170.672;\n    }\n}\n\nCO2\n{\n    specie\n    {\n        molWeight       44.01;\n    }\n    elements\n    {\n        C       1;\n        O       2;\n    }\n    thermodynamics\n    {\n        Tlow            200;\n        Thigh           5000;\n        Tcommon         1000;\n        highCpCoeffs    ( 4.45362 0.00314017 -1.27841e-06 2.394e-10 -1.66903e-14 -48967 -0.955396 );\n        lowCpCoeffs     ( 2.27572 0.00992207 -1.04091e-05 6.86669e-09 -2.11728e-12 -48373.1 10.1885 );\n    }\n    transport\n    {\n        As              1.67212e-06;\n        Ts              170.672;\n    }\n}\n\nN2\n{\n    specie\n    {\n        molWeight       28.0134;\n    }\n    elements\n    {\n        N       2;\n    }\n    thermodynamics\n    {\n        Tlow            200;\n        Thigh           5000;\n        Tcommon         1000;\n        highCpCoeffs    ( 2.92664 0.00148798 -5.68476e-07 1.0097e-10 -6.75335e-15 -922.798 5.98053 );\n        lowCpCoeffs     ( 3.29868 0.00140824 -3.96322e-06 5.64152e-09 -2.44486e-12 -1020.9 3.95037 );\n    }\n    transport\n    {\n        As              1.67212e-06;\n        Ts              170.672;\n    }\n}\n\n\n// ************************************************************************* //\n"
}
修改建议：


1. The error indicates missing 'Tlow' entry in CH4/thermodynamics. The provided file uses 'TLow' (uppercase L) instead of 'tlow' (lowercase L). OpenFOAM dictionary keys are case-sensitive.
2. Correct 'TLow' to 'tlow' and 'THigh' to 'thigh' in all species' thermodynamics sections to match OpenFOAM's expected keywords. For CH4: Change lines 20-24 from TLow/THigh to tlow/thigh.
3. Add required 'elements' subsection to each specie following tutorial structure (e.g. CH4 should contain C and H elements). Example for CH4:
   elements
   {
       C       1;
       H       4;
   }
4. Ensure all thermodynamic coefficients match the 7-element format from tutorials. Current CH4 highCpCoeffs has 7 elements (valid), but verify values match actual JANAF table data.
5. Remove any unnecessary sections not present in tutorial thermo.compressibleGas files (e.g. 'specie' subsection should only contain molWeight when using elements). Keep only molWeight in specie subsection.
=====Test round 4=====
运行错误:


--> FOAM FATAL IO ERROR: (openfoam-2406 patch=241212)
Entry 'Tlow' not found in dictionary "/home/ChatCFD_0527/run_chatcfd/Counterflow_Flame_2D_Laminar_0/constant/thermo.compressibleGas/CH4/thermodynamics"


file: constant/thermo.compressibleGas/CH4/thermodynamics at line 22 to 26.

    From bool Foam::dictionary::readEntry(const Foam::word&, T&, Foam::keyType::option, Foam::IOobjectOption::readOption) const [with T = double]
    in file ./src/OpenFOAM/lnInclude/dictionaryTemplates.C at line 327.

FOAM exiting


纠错方案：
修改文件constant/thermo.compressibleGas
参考文件：
{
  "sample_file_0": "FoamFile\n{\n    version     2.0;\n    format      ascii;\n    class       dictionary;\n    object      thermo.compressibleGas;\n}\n// * * * * * * * * * * * * * * * * * * * * * * * * * * * * * * * * * * * * * //\n\nO2\n{\n    specie\n    {\n        molWeight       31.9988;\n    }\n    elements\n    {\n        O       2;\n    }\n    thermodynamics\n    {\n        Tlow            200;\n        Thigh           5000;\n        Tcommon         1000;\n        highCpCoeffs    ( 3.69758 0.00061352 -1.25884e-07 1.77528e-11 -1.13644e-15 -1233.93 3.18917 );\n        lowCpCoeffs     ( 3.21294 0.00112749 -5.75615e-07 1.31388e-09 -8.76855e-13 -1005.25 6.03474 );\n    }\n    transport\n    {\n        As              1.67212e-06;\n        Ts              170.672;\n    }\n}\n\nH2O\n{\n    specie\n    {\n        molWeight       18.0153;\n    }\n    elements\n    {\n        O       1;\n        H       2;\n    }\n    thermodynamics\n    {\n        Tlow            200;\n        Thigh           5000;\n        Tcommon         1000;\n        highCpCoeffs    ( 2.67215 0.00305629 -8.73026e-07 1.201e-10 -6.39162e-15 -29899.2 6.86282 );\n        lowCpCoeffs     ( 3.38684 0.00347498 -6.3547e-06 6.96858e-09 -2.50659e-12 -30208.1 2.59023 );\n    }\n    transport\n    {\n        As              1.67212e-06;\n        Ts              170.672;\n    }\n}\n\nCH4\n{\n    specie\n    {\n        molWeight       16.0428;\n    }\n    elements\n    {\n        C       1;\n        H       4;\n    }\n    thermodynamics\n    {\n        Tlow            200;\n        Thigh           6000;\n        Tcommon         1000;\n        highCpCoeffs    ( 1.63543 0.0100844 -3.36924e-06 5.34973e-10 -3.15528e-14 -10005.6 9.9937 );\n        lowCpCoeffs     ( 5.14988 -0.013671 4.91801e-05 -4.84744e-08 1.66694e-11 -10246.6 -4.64132 );\n    }\n    transport\n    {\n        As              1.67212e-06;\n        Ts              170.672;\n    }\n}\n\nCO2\n{\n    specie\n    {\n        molWeight       44.01;\n    }\n    elements\n    {\n        C       1;\n        O       2;\n    }\n    thermodynamics\n    {\n        Tlow            200;\n        Thigh           5000;\n        Tcommon         1000;\n        highCpCoeffs    ( 4.45362 0.00314017 -1.27841e-06 2.394e-10 -1.66903e-14 -48967 -0.955396 );\n        lowCpCoeffs     ( 2.27572 0.00992207 -1.04091e-05 6.86669e-09 -2.11728e-12 -48373.1 10.1885 );\n    }\n    transport\n    {\n        As              1.67212e-06;\n        Ts              170.672;\n    }\n}\n\nN2\n{\n    specie\n    {\n        molWeight       28.0134;\n    }\n    elements\n    {\n        N       2;\n    }\n    thermodynamics\n    {\n        Tlow            200;\n        Thigh           5000;\n        Tcommon         1000;\n        highCpCoeffs    ( 2.92664 0.00148798 -5.68476e-07 1.0097e-10 -6.75335e-15 -922.798 5.98053 );\n        lowCpCoeffs     ( 3.29868 0.00140824 -3.96322e-06 5.64152e-09 -2.44486e-12 -1020.9 3.95037 );\n    }\n    transport\n    {\n        As              1.67212e-06;\n        Ts              170.672;\n    }\n}\n\n\n// ************************************************************************* //\n"
}
修改建议：


1. The error occurs because the 'Tlow' entry is missing in the thermodynamics dictionary of CH4 in constant/thermo.compressibleGas. The existing entry uses lowercase 'tlow' instead of the required uppercase 'Tlow'.  
2. Compare with the tutorial file: Thermodynamic entries must use exact case-sensitive keywords 'Tlow' and 'Thigh', not 'tlow'/'thigh'.  
3. Modify all species' thermodynamics sections in constant/thermo.compressibleGas to replace 'tlow' with 'Tlow' and 'thigh' with 'Thigh'. Keep all other entries (molWeight, elements, CpCoeffs) unchanged.  
4. For CH4 thermodynamics specifically change lines 22-26 from:  
tlow            200;  
thigh           6000;  
To:  
Tlow            200;  
Thigh           6000;  
5. Apply identical capitalization corrections to O2, CO2, H2O and N2 thermodynamics dictionaries.  
6. This fix maintains initial/boundary condition compatibility as it only affects thermodynamic property calculations, not field values or boundary definitions.
=====Test round 5=====
运行错误:


--> FOAM FATAL IO ERROR: (openfoam-2406 patch=241212)
Entry 'dimensions' not found in dictionary "0/O2"


file: 0/O2 at line 9 to 36.

    From bool Foam::dimensionSet::readEntry(const Foam::word&, const Foam::dictionary&, Foam::IOobjectOption::readOption)
    in file dimensionSet/dimensionSetIO.C at line 442.

FOAM exiting


纠错方案：
修改文件0/O2
参考文件：
{
  "sample_file_0": "FoamFile\n{\n    version     2.0;\n    format      ascii;\n    class       volScalarField;\n    object      O2;\n}\n// * * * * * * * * * * * * * * * * * * * * * * * * * * * * * * * * * * * * * //\n\ndimensions      [0 0 0 0 0 0 0];\n\ninternalField   uniform 0;\n\nboundaryField\n{\n    fuel\n    {\n        type            fixedValue;\n        value           uniform 0;\n    }\n\n    air\n    {\n        type            fixedValue;\n        value           uniform 0.23;\n    }\n\n    outlet\n    {\n        type            inletOutlet;\n        inletValue      uniform 0;\n        value           uniform 0;\n    }\n\n    frontAndBack\n    {\n        type            empty;\n    }\n}\n\n\n// ************************************************************************* //\n"
}
修改建议：


Add the 'dimensions' entry immediately after the FoamFile block in 0/O2 to resolve the missing dimensional definition. Insert 'dimensions      [0 0 0 0 0 0 0];' between lines 9-36 (after FoamFile{} block, before internalField) without modifying boundary conditions. The correction preserves initial conditions (internalField uniform 0) and boundary settings while satisfying OpenFOAM's mandatory field dimension requirement. No other entries should be removed/added as all other parameters match the paper's BC specifications.
=====Test round 6=====
运行错误:


--> FOAM FATAL IO ERROR: (openfoam-2406 patch=241212)
Entry 'dimensions' not found in dictionary "0/H2O"


file: 0/H2O at line 9 to 36.
