/*--------------------------------*- C++ -*----------------------------------*\
| =========                 |                                                 |
| \\      /  F ield         | OpenFOAM: The Open Source CFD Toolbox           |
|  \\    /   O peration     | Version:  2406                                  |
|   \\  /    A nd           | Website:  www.openfoam.com                      |
|    \\/     M anipulation  |                                                 |
\*---------------------------------------------------------------------------*/
FoamFile
{
    version     2.0;
    format      ascii;
    arch        "LSB;label=32;scalar=64";
    class       volScalarField;
    location    "6.4416e-05";
    object      O2;
}
// * * * * * * * * * * * * * * * * * * * * * * * * * * * * * * * * * * * * * //

dimensions      [0 0 0 0 0 0 0];

internalField   nonuniform List<scalar> 
4000
(
3.08657e-82
2.31134e-81
1.3114e-80
7.35877e-80
4.2898e-79
2.55744e-78
1.55303e-77
9.59128e-77
6.01886e-76
3.8147e-75
2.43773e-74
1.56879e-73
1.01572e-72
6.61127e-72
4.32328e-71
2.83877e-70
1.87089e-69
1.2371e-68
8.20463e-68
5.45562e-67
3.63232e-66
2.42496e-65
1.62129e-64
1.08547e-63
7.27602e-63
4.88233e-62
3.27912e-61
2.20409e-60
1.4825e-59
9.97724e-59
6.71792e-58
4.52514e-57
3.04924e-56
2.05552e-55
1.38621e-54
9.35223e-54
6.31226e-53
4.26225e-52
2.87925e-51
1.94585e-50
1.31562e-49
8.89905e-49
6.02209e-48
4.07699e-47
2.76134e-46
1.87104e-45
1.26831e-44
8.60084e-44
5.83477e-43
3.95974e-42
2.6882e-41
1.82557e-40
1.24013e-39
8.42666e-39
5.7273e-38
3.89346e-37
2.64726e-36
1.80018e-35
1.22426e-34
8.32623e-34
5.66277e-33
3.85124e-32
2.61907e-31
1.78095e-30
1.21085e-29
8.23072e-29
5.59329e-28
3.79967e-27
2.58011e-26
1.75106e-25
1.18765e-24
8.04912e-24
5.45e-23
3.68606e-22
2.48981e-21
1.67939e-20
1.13079e-19
7.59873e-19
5.09442e-18
3.40634e-17
2.27029e-16
1.50799e-15
9.97589e-15
6.56819e-14
4.30137e-13
2.79894e-12
1.80778e-11
1.15745e-10
7.33468e-10
4.59127e-09
2.83201e-08
1.71593e-07
1.01711e-06
5.8656e-06
3.26708e-05
0.000173944
0.000877759
0.00410434
0.0175478
0.0689977
3.12093e-81
2.44913e-80
1.40855e-79
7.56642e-79
4.07267e-78
2.2285e-77
1.23447e-76
6.89768e-76
4.01315e-75
2.37121e-74
1.41948e-73
8.59377e-73
5.25404e-72
3.23986e-71
2.01295e-70
1.25895e-69
7.92126e-69
5.01092e-68
3.18876e-67
2.04279e-66
1.31609e-65
8.51386e-65
5.52793e-64
3.60134e-63
2.35351e-62
1.54242e-61
1.0135e-60
6.67559e-60
4.40676e-59
2.91501e-58
1.9319e-57
1.28148e-56
8.50312e-56
5.64419e-55
3.74802e-54
2.48998e-53
1.65501e-52
1.10043e-51
7.31958e-51
4.87062e-50
3.24236e-49
2.15935e-48
1.4387e-47
9.58992e-47
6.39519e-46
4.26669e-45
2.84794e-44
1.90184e-43
1.27065e-42
8.49341e-42
5.67997e-41
3.80029e-40
2.54386e-39
1.70363e-38
1.14147e-37
7.6516e-37
5.13145e-36
3.4429e-35
2.311e-34
1.55085e-33
1.04052e-32
6.97969e-32
4.68065e-31
3.13794e-30
2.10296e-29
1.40881e-28
9.43337e-28
6.31317e-27
4.22237e-26
2.82197e-25
1.88447e-24
1.25723e-23
8.3785e-23
5.57669e-22
3.69831e-21
2.45442e-20
1.62541e-19
1.07409e-18
7.08031e-18
4.65413e-17
3.04945e-16
1.98691e-15
1.29129e-14
8.32662e-14
5.35467e-13
3.41983e-12
2.16717e-11
1.36091e-10
8.45502e-10
5.18676e-09
3.13407e-08
1.85961e-07
1.07933e-06
6.09726e-06
3.33037e-05
0.000174364
0.000868983
0.00405657
0.0174779
0.0688628
2.11178e-80
1.67021e-79
9.37006e-79
5.09848e-78
2.7681e-77
1.53082e-76
8.64269e-76
4.97774e-75
2.81199e-74
1.60938e-73
9.3186e-73
5.45117e-72
3.21779e-71
1.91472e-70
1.1475e-69
6.92084e-69
4.19677e-68
2.55962e-67
1.56742e-66
9.64488e-66
5.95493e-65
3.68922e-64
2.29268e-63
1.42887e-62
8.92845e-62
5.59251e-61
3.51077e-60
2.20846e-59
1.39188e-58
8.78778e-58
5.55727e-57
3.52074e-56
2.23479e-55
1.4211e-54
9.05228e-54
5.77555e-53
3.72274e-52
2.40316e-51
1.55348e-50
1.00559e-49
6.51804e-49
4.23046e-48
2.74931e-47
1.78907e-46
1.16568e-45
7.6047e-45
4.96741e-44
3.24878e-43
2.12739e-42
1.39479e-41
9.15592e-41
6.01762e-40
3.95982e-39
2.60887e-38
1.7209e-37
1.13653e-36
7.515e-36
4.97504e-35
3.29643e-34
2.18385e-33
1.44671e-32
9.58301e-32
6.34705e-31
4.20312e-30
2.77838e-29
1.83925e-28
1.21692e-27
8.04829e-27
5.32022e-26
3.51479e-25
2.32041e-24
1.53064e-23
1.0087e-22
6.63995e-22
4.36512e-21
2.86549e-20
1.87774e-19
1.22797e-18
8.0116e-18
5.21274e-17
3.38098e-16
2.17259e-15
1.39889e-14
8.95717e-14
5.70368e-13
3.6083e-12
2.26523e-11
1.40934e-10
8.67595e-10
5.27444e-09
3.15901e-08
1.85833e-07
1.06946e-06
5.99255e-06
3.2607e-05
0.000170937
0.000853258
0.00400088
0.0173403
0.0686506
8.17262e-80
6.48808e-79
3.67787e-78
1.93102e-77
1.01387e-76
5.38527e-76
2.90052e-75
1.55476e-74
8.50029e-74
4.70742e-73
2.63615e-72
1.4912e-71
8.51275e-71
4.90014e-70
2.84192e-69
1.65972e-68
9.75415e-68
5.76089e-67
3.37416e-66
2.02049e-65
1.21322e-64
7.31998e-64
4.43496e-63
2.69758e-62
1.64694e-61
1.00907e-60
6.20362e-60
3.8264e-59
2.36761e-58
1.46948e-57
9.14777e-57
5.71132e-56
3.57601e-55
2.24532e-54
1.4137e-53
8.92511e-53
5.61373e-52
3.53903e-51
2.23637e-50
1.41647e-49
8.99196e-49
5.72097e-48
3.64781e-47
2.33103e-46
1.4927e-45
9.57881e-45
6.1596e-44
3.96906e-43
2.56277e-42
1.6581e-41
1.07495e-40
6.98289e-40
4.5452e-39
2.9644e-38
1.93725e-37
1.26733e-36
8.31605e-36
5.46701e-35
3.59888e-34
2.36917e-33
1.55992e-32
1.02724e-31
6.76528e-31
4.45582e-30
2.93477e-29
1.93297e-28
1.273e-27
8.38211e-27
5.51774e-26
3.63086e-25
2.38808e-24
1.56973e-23
1.03103e-22
6.76575e-22
4.43482e-21
2.90307e-20
1.89736e-19
1.23773e-18
8.05664e-18
5.23077e-17
3.38589e-16
2.18402e-15
1.38734e-14
8.8768e-14
5.64223e-13
3.56351e-12
2.23363e-11
1.38768e-10
8.53174e-10
5.1811e-09
3.10037e-08
1.82262e-07
1.04847e-06
5.87566e-06
3.20339e-05
0.000168386
0.00084319
0.00396795
0.0172611
0.0685413
2.2758e-79
1.78703e-78
9.95733e-78
5.15963e-77
2.60423e-76
1.3229e-75
6.78579e-75
3.5575e-74
1.89005e-73
1.01908e-72
5.56449e-72
3.07264e-71
1.71374e-70
9.6446e-70
5.47175e-69
3.12716e-68
1.79778e-67
1.03501e-66
5.84169e-66
3.40981e-65
1.97921e-64
1.16759e-63
6.9191e-63
4.11722e-62
2.4596e-61
1.47487e-60
8.87567e-60
5.35982e-59
3.24748e-58
1.97398e-57
1.20362e-56
7.36122e-56
4.51527e-55
2.7775e-54
1.71327e-53
1.05967e-52
6.57201e-52
4.08758e-51
2.54952e-50
1.59463e-49
1.00014e-48
6.2899e-48
3.96642e-47
2.50812e-46
1.59013e-45
1.01082e-44
6.44261e-44
4.11714e-43
2.63797e-42
1.69468e-41
1.09155e-40
7.04927e-40
4.56444e-39
2.96331e-38
1.92683e-37
1.25613e-36
8.22102e-36
5.39391e-35
3.54533e-34
2.33065e-33
1.53267e-32
1.00821e-31
6.63386e-31
4.3659e-30
2.87375e-29
1.89175e-28
1.24533e-27
8.19763e-27
5.39572e-26
3.55082e-25
2.33605e-24
1.53621e-23
1.00957e-22
6.62922e-22
4.34853e-21
2.8489e-20
1.86362e-19
1.21647e-18
7.92323e-18
5.14746e-17
3.33414e-16
2.15208e-15
1.36351e-14
8.71979e-14
5.54693e-13
3.50523e-12
2.19829e-11
1.36652e-10
8.40684e-10
5.10865e-09
3.05914e-08
1.79961e-07
1.03578e-06
5.80713e-06
3.16931e-05
0.000166905
0.00083745
0.00394937
0.0172153
0.0684807
5.25938e-79
4.10681e-78
2.25796e-77
1.11946e-76
5.7197e-76
2.9425e-75
1.52941e-74
8.04628e-74
4.24437e-73
2.2555e-72
1.20702e-71
6.50487e-71
3.53006e-70
1.92883e-69
1.06096e-68
5.87307e-68
3.26774e-67
1.83662e-66
1.03986e-65
5.91436e-65
3.3999e-64
1.94736e-63
1.12062e-62
6.47961e-62
3.76418e-61
2.1967e-60
1.28765e-59
7.58072e-59
4.4819e-58
2.66082e-57
1.58611e-56
9.49252e-56
5.70334e-55
3.43991e-54
2.08262e-53
1.26559e-52
7.7192e-52
4.72532e-51
2.903e-50
1.78978e-49
1.10732e-48
6.8747e-48
4.28269e-47
2.67731e-46
1.67924e-45
1.05679e-44
6.67295e-44
4.22756e-43
2.68722e-42
1.71377e-41
1.09658e-40
7.0399e-40
4.53451e-39
2.93046e-38
1.89764e-37
1.23288e-36
8.04904e-36
5.27157e-35
3.46048e-34
2.27227e-33
1.49284e-32
9.81249e-32
6.45263e-31
4.24485e-30
2.79338e-29
1.83869e-28
1.2105e-27
7.97016e-27
5.24774e-26
3.45481e-25
2.27385e-24
1.49593e-23
9.83549e-23
6.46148e-22
4.24061e-21
2.77961e-20
1.81941e-19
1.18912e-18
7.75546e-18
5.04556e-17
3.27201e-16
2.08007e-15
1.33933e-14
8.54837e-14
5.44493e-13
3.44442e-12
2.16247e-11
1.34571e-10
8.28796e-10
5.04202e-09
3.02256e-08
1.77993e-07
1.02532e-06
5.75264e-06
3.14306e-05
0.000165812
0.000833463
0.00393706
0.0171873
0.0684445
1.30245e-78
1.01136e-77
5.54252e-77
2.84964e-76
1.42944e-75
7.1927e-75
3.64795e-74
1.86842e-73
9.60137e-73
4.97309e-72
2.59422e-71
1.36269e-70
7.20661e-70
3.83645e-69
2.05553e-68
1.10839e-67
6.01353e-67
3.28359e-66
1.79617e-65
9.83883e-65
5.41593e-64
3.02518e-63
1.69925e-62
9.59648e-62
5.44824e-61
3.10916e-60
1.7833e-59
1.02792e-58
5.95394e-58
3.46518e-57
2.02623e-56
1.19031e-55
7.02439e-55
4.16395e-54
2.47928e-53
1.48267e-52
8.90514e-52
5.37145e-51
3.25371e-50
1.97918e-49
1.20892e-48
7.41476e-48
4.56629e-47
2.82392e-46
1.75327e-45
1.09295e-44
6.84058e-44
4.29857e-43
2.712e-42
1.71785e-41
1.09248e-40
6.97552e-40
4.47168e-39
2.87806e-38
1.85796e-37
1.20344e-36
7.84107e-36
5.1283e-35
3.36371e-34
2.20725e-33
1.44943e-32
9.52433e-32
6.26232e-31
4.11977e-30
2.71155e-29
1.7854e-28
1.17594e-27
7.7469e-27
5.10395e-26
3.36251e-25
2.21479e-24
1.45829e-23
9.59658e-23
6.31057e-22
4.14574e-21
2.72023e-20
1.78213e-19
1.16537e-18
7.60399e-18
4.9493e-17
3.21258e-16
2.07802e-15
1.31661e-14
8.41513e-14
5.3652e-13
3.39741e-12
2.1351e-11
1.33002e-10
8.19953e-10
4.9932e-09
2.9962e-08
1.76598e-07
1.01802e-06
5.71509e-06
3.12507e-05
0.000165066
0.000830703
0.00392878
0.0171688
0.0684214
2.8816e-78
2.222e-77
1.20215e-76
6.00788e-76
2.96539e-75
1.46619e-74
7.29716e-74
3.66264e-73
1.84225e-72
9.33632e-72
4.76378e-71
2.44708e-70
1.26543e-69
6.58698e-69
3.45113e-68
1.81966e-67
9.65938e-67
5.11479e-66
2.73541e-65
1.49274e-64
8.19205e-64
4.48442e-63
2.46858e-62
1.36666e-61
7.60869e-61
4.25952e-60
2.39761e-59
1.35684e-58
7.71941e-58
4.41482e-57
2.538e-56
1.46652e-55
8.51691e-55
4.97105e-54
2.91585e-53
1.71876e-52
1.01807e-51
6.05949e-51
3.62389e-50
2.17762e-49
1.31475e-48
7.97525e-48
4.86031e-47
2.97631e-46
1.83082e-45
1.13144e-44
7.02455e-44
4.38135e-43
2.74534e-42
1.72815e-41
1.09286e-40
6.94294e-40
4.4312e-39
2.84119e-38
1.8293e-37
1.18146e-36
7.68299e-36
5.01815e-35
3.289e-34
2.15685e-33
1.41566e-32
9.29937e-32
6.11328e-31
4.02149e-30
2.64702e-29
1.74319e-28
1.14843e-27
7.56817e-27
4.98824e-26
3.28787e-25
2.16684e-24
1.42762e-23
9.40139e-23
6.18695e-22
4.06788e-21
2.67152e-20
1.75194e-19
1.14686e-18
7.49179e-18
4.88144e-17
3.17108e-16
2.0111e-15
1.29701e-14
8.31623e-14
5.30174e-13
3.36034e-12
2.11367e-11
1.31783e-10
8.13151e-10
4.95608e-09
2.97641e-08
1.75566e-07
1.01271e-06
5.68811e-06
3.11232e-05
0.000164548
0.000828862
0.00392316
0.0171564
0.0684055
5.62119e-78
4.30576e-77
2.31047e-76
1.14394e-75
5.58566e-75
2.72931e-74
1.34154e-73
6.64584e-73
3.29623e-72
1.6462e-71
8.27261e-71
4.18314e-70
2.12849e-69
1.08981e-68
5.61475e-68
2.91087e-67
1.51799e-66
7.95032e-66
4.20382e-65
2.23416e-64
1.19431e-63
6.42196e-63
3.47383e-62
1.89025e-61
1.03461e-60
5.69587e-60
3.15377e-59
1.75617e-58
9.83442e-58
5.53805e-57
3.13596e-56
1.78555e-55
1.02222e-54
5.88398e-54
3.40515e-53
1.98119e-52
1.15885e-51
6.81444e-51
4.02828e-50
2.39379e-49
1.42995e-48
8.58654e-48
5.18261e-47
3.14495e-46
1.91798e-45
1.17577e-44
7.24499e-44
4.48731e-43
2.79362e-42
1.74816e-41
1.09958e-40
6.95197e-40
4.418e-39
2.82216e-38
1.81209e-37
1.16691e-36
7.57291e-36
4.93874e-35
3.23406e-34
2.11912e-33
1.38999e-32
9.12621e-32
5.99725e-31
3.94422e-30
2.59585e-29
1.70948e-28
1.12634e-27
7.42412e-27
4.89475e-26
3.22748e-25
2.12801e-24
1.40276e-23
9.24282e-23
6.08619e-22
4.00403e-21
2.63111e-20
1.72638e-19
1.13069e-18
7.38908e-18
4.81606e-17
3.12919e-16
2.02579e-15
1.28016e-14
8.2302e-14
5.25191e-13
3.33113e-12
2.09683e-11
1.30829e-10
8.0786e-10
4.92739e-09
2.96124e-08
1.74782e-07
1.0087e-06
5.668e-06
3.10289e-05
0.000164167
0.000827501
0.00391907
0.0171474
0.0683942
9.95831e-78
7.59788e-77
4.05608e-76
1.99622e-75
9.68002e-75
4.69283e-74
2.28691e-73
1.12234e-72
5.50983e-72
2.72207e-71
1.35245e-70
6.75843e-70
3.3971e-69
1.71767e-68
8.73705e-68
4.4708e-67
2.302e-66
1.1789e-65
6.11702e-65
3.19068e-64
1.67436e-63
8.83986e-63
4.69537e-62
2.50905e-61
1.34881e-60
7.32001e-60
3.99626e-59
2.19463e-58
1.21233e-57
6.73635e-57
3.76494e-56
2.11647e-55
1.19668e-54
6.80528e-54
3.8923e-53
2.239e-52
1.29533e-51
7.5366e-51
4.40998e-50
2.59511e-49
1.53577e-48
9.14e-48
5.47003e-47
3.2929e-46
1.99304e-45
1.21312e-44
7.42559e-44
4.57083e-43
2.82942e-42
1.76132e-41
1.1026e-40
6.94134e-40
4.39454e-39
2.7979e-38
1.79144e-37
1.15063e-36
7.45352e-36
4.85416e-35
3.17627e-34
2.07981e-33
1.36343e-32
8.94766e-32
5.87781e-31
3.86465e-30
2.54303e-29
1.67454e-28
1.10329e-27
7.27251e-27
4.79528e-26
3.16237e-25
2.08549e-24
1.37505e-23
9.06261e-23
5.9692e-22
3.92821e-21
2.58207e-20
1.69472e-19
1.11029e-18
7.25801e-18
4.73208e-17
3.07563e-16
1.99133e-15
1.28387e-14
8.14919e-14
5.21228e-13
3.30801e-12
2.08358e-11
1.30083e-10
8.03748e-10
4.90525e-09
2.94962e-08
1.74186e-07
1.00567e-06
5.65284e-06
3.09575e-05
0.000163878
0.000826465
0.00391604
0.0171406
0.0683859
1.56672e-77
1.19102e-76
6.28315e-76
3.07342e-75
1.47997e-74
7.11858e-74
3.43937e-73
1.67225e-72
8.12613e-72
3.97144e-71
1.9508e-70
9.6324e-70
4.78162e-69
2.38662e-68
1.19784e-67
6.04535e-67
3.06739e-66
1.57809e-65
8.07952e-65
4.18754e-64
2.1818e-63
1.14368e-62
6.03185e-62
3.20077e-61
1.70894e-60
9.14934e-60
4.93211e-59
2.67637e-58
1.46113e-57
8.02541e-57
4.43479e-56
2.46552e-55
1.37901e-54
7.75984e-54
4.39297e-53
2.50198e-52
1.4336e-51
8.26398e-51
4.79252e-50
2.7961e-49
1.64116e-48
9.69073e-48
5.75686e-47
3.44124e-46
2.06898e-45
1.25149e-44
7.61581e-44
4.66255e-43
2.87178e-42
1.77952e-41
1.10938e-40
6.9581e-40
4.39071e-39
2.78751e-38
1.7805e-37
1.14109e-36
7.38075e-36
4.80157e-35
3.14052e-34
2.05564e-33
1.34725e-32
8.84032e-32
5.80717e-31
3.81851e-30
2.51311e-29
1.65527e-28
1.09098e-27
7.19442e-27
4.74619e-26
3.13182e-25
2.06669e-24
1.36365e-23
8.99467e-23
5.92965e-22
3.90597e-21
2.57023e-20
1.68901e-19
1.10808e-18
7.25493e-18
4.7385e-17
3.08598e-16
2.00334e-15
1.2657e-14
8.09949e-14
5.18086e-13
3.28967e-12
2.07312e-11
1.29496e-10
8.00519e-10
4.88793e-09
2.94056e-08
1.73724e-07
1.00334e-06
5.64124e-06
3.09035e-05
0.000163661
0.000825694
0.00391376
0.0171356
0.0683797
2.29202e-77
1.73769e-76
9.24335e-76
4.50437e-75
2.1591e-74
1.03309e-73
4.96284e-73
2.39785e-72
1.15719e-71
5.61415e-71
2.73644e-70
1.34026e-69
6.5974e-69
3.26443e-68
1.62388e-67
8.12178e-67
4.08423e-66
2.0392e-65
1.04142e-64
5.34639e-64
2.76246e-63
1.43609e-62
7.50985e-62
3.95058e-61
2.09067e-60
1.11147e-59
5.93754e-59
3.1889e-58
1.72328e-57
9.37064e-57
5.12727e-56
2.82302e-55
1.56407e-54
8.7201e-54
4.89227e-53
2.76203e-52
1.56921e-51
8.97154e-51
5.1617e-50
2.98856e-49
1.74131e-48
1.02099e-47
6.02536e-47
3.57895e-46
2.13886e-45
1.28644e-44
7.78697e-44
4.74373e-43
2.90835e-42
1.79455e-41
1.11442e-40
6.96519e-40
4.38138e-39
2.77389e-38
1.76755e-37
1.13026e-36
7.29879e-36
4.74215e-35
3.0996e-34
2.02754e-33
1.32809e-32
8.7104e-32
5.71945e-31
3.75947e-30
2.47348e-29
1.62873e-28
1.07323e-27
7.07581e-27
4.66698e-26
3.07891e-25
2.03133e-24
1.33999e-23
8.83619e-23
5.82331e-22
3.83448e-21
2.52206e-20
1.65648e-19
1.08606e-18
7.10563e-18
4.63715e-17
3.01715e-16
1.95577e-15
1.26283e-14
8.06156e-14
5.15606e-13
3.27515e-12
2.06487e-11
1.29034e-10
7.97984e-10
4.87436e-09
2.93349e-08
1.73363e-07
1.00153e-06
5.63228e-06
3.0862e-05
0.000163495
0.000825106
0.00391203
0.0171319
0.0683752
3.26949e-77
2.47419e-76
1.30939e-75
6.35991e-75
3.03724e-74
1.44711e-73
6.91931e-73
3.32598e-72
1.59601e-71
7.69627e-71
3.72723e-70
1.8132e-69
8.86234e-69
4.35291e-68
2.14892e-67
1.0664e-66
5.31889e-66
2.66471e-65
1.3457e-64
6.83794e-64
3.49134e-63
1.79236e-62
9.25558e-62
4.80795e-61
2.51257e-60
1.32102e-59
6.98837e-59
3.72008e-58
1.99278e-57
1.07427e-56
5.82817e-56
3.18217e-55
1.74865e-54
9.67116e-54
5.38348e-53
3.01624e-52
1.70096e-51
9.65517e-51
5.51656e-50
3.17269e-49
1.83674e-48
1.07028e-47
6.28044e-47
3.70869e-46
2.20472e-45
1.31942e-44
7.94906e-44
4.82118e-43
2.94377e-42
1.80955e-41
1.11986e-40
6.97725e-40
4.37665e-39
2.76401e-38
1.75746e-37
1.12154e-36
7.23176e-36
4.69308e-35
3.06579e-34
2.00434e-33
1.31228e-32
8.60351e-32
5.64754e-31
3.71132e-30
2.44137e-29
1.60739e-28
1.05909e-27
6.9825e-27
4.60558e-26
3.03866e-25
2.00504e-24
1.32289e-23
8.7254e-23
5.75187e-22
3.78863e-21
2.49276e-20
1.63784e-19
1.07425e-18
7.03107e-18
4.59022e-17
2.98772e-16
1.93782e-15
1.25164e-14
8.0325e-14
5.13726e-13
3.26385e-12
2.05839e-11
1.28673e-10
7.96013e-10
4.86385e-09
2.92803e-08
1.73086e-07
1.00014e-06
5.62541e-06
3.08299e-05
0.000163366
0.000824654
0.0039107
0.017129
0.0683716
4.43583e-77
3.35032e-76
1.76439e-75
8.54446e-75
4.06685e-74
1.93034e-73
9.19163e-73
4.39822e-72
2.10003e-71
1.00731e-70
4.85088e-70
2.34585e-69
1.13948e-68
5.56067e-68
2.72678e-67
1.34386e-66
6.65437e-66
3.301e-65
1.6561e-64
8.32552e-64
4.21547e-63
2.14691e-62
1.09992e-61
5.66921e-61
2.93988e-60
1.53397e-59
8.05399e-59
4.25542e-58
2.26274e-57
1.2109e-56
6.52216e-56
3.53588e-55
1.9295e-54
1.05987e-53
5.86053e-53
3.2622e-52
1.82805e-51
1.0313e-50
5.85749e-50
3.34951e-49
1.92844e-48
1.11779e-47
6.52632e-47
3.83536e-46
2.26966e-45
1.35245e-44
8.1152e-44
4.9034e-43
2.9835e-42
1.82806e-41
1.12798e-40
7.00913e-40
4.38616e-39
2.76421e-38
1.75441e-37
1.1177e-36
7.19827e-36
4.66695e-35
3.04739e-34
1.99165e-33
1.30365e-32
8.54539e-32
5.60882e-31
3.68575e-30
2.42461e-29
1.59648e-28
1.05205e-27
6.93726e-27
4.57671e-26
3.02033e-25
1.99347e-24
1.31562e-23
8.68002e-23
5.72366e-22
3.77118e-21
2.48205e-20
1.63133e-19
1.07035e-18
7.00812e-18
4.57715e-17
2.9807e-16
1.93445e-15
1.25041e-14
8.00295e-14
5.12212e-13
3.25508e-12
2.05339e-11
1.2839e-10
7.94471e-10
4.85563e-09
2.92377e-08
1.72871e-07
9.99059e-07
5.62007e-06
3.08051e-05
0.000163267
0.000824304
0.00390968
0.0171268
0.0683689
5.6845e-77
4.28593e-76
2.25206e-75
1.08783e-74
5.16272e-74
2.44258e-73
1.15898e-72
5.52454e-72
2.62679e-71
1.25438e-70
6.01232e-70
2.89314e-69
1.39805e-68
6.78586e-68
3.30898e-67
1.62157e-66
7.96883e-66
3.94264e-65
1.96585e-64
9.85269e-64
4.95398e-63
2.50578e-62
1.27512e-61
6.529e-61
3.36418e-60
1.74436e-59
9.10151e-59
4.7791e-58
2.52558e-57
1.34335e-56
7.19206e-56
3.87596e-55
2.10276e-54
1.14844e-53
6.31475e-53
3.49585e-52
1.94857e-51
1.09361e-50
6.18033e-50
3.51704e-49
2.01547e-48
1.16301e-47
6.76145e-47
3.95733e-46
2.33277e-45
1.38498e-44
8.28171e-44
4.98788e-43
3.0258e-42
1.84884e-41
1.1379e-40
7.05444e-40
4.40537e-39
2.77121e-38
1.75604e-37
1.11705e-36
7.18616e-36
4.65499e-35
3.03763e-34
1.98464e-33
1.29868e-32
8.51089e-32
5.58525e-31
3.66984e-30
2.41398e-29
1.58945e-28
1.04743e-27
6.90723e-27
4.55732e-26
3.00791e-25
1.98557e-24
1.31064e-23
8.64901e-23
5.70465e-22
3.75975e-21
2.47534e-20
1.62752e-19
1.06828e-18
6.99759e-18
4.57237e-17
2.97894e-16
1.93415e-15
1.25072e-14
7.98003e-14
5.11016e-13
3.24807e-12
2.04943e-11
1.28171e-10
7.93263e-10
4.8492e-09
2.92043e-08
1.72702e-07
9.98219e-07
5.61595e-06
3.0786e-05
0.000163191
0.000824037
0.00390889
0.0171251
0.0683669
6.94849e-77
5.23168e-76
2.7441e-75
1.3228e-74
6.26342e-74
2.95576e-73
1.39859e-72
6.64665e-72
3.14997e-71
1.49898e-70
7.15824e-70
3.43122e-69
1.65135e-68
7.98148e-68
3.87506e-67
1.89001e-66
9.27929e-66
4.54991e-65
2.2591e-64
1.12653e-63
5.64874e-63
2.84741e-62
1.44329e-61
7.35685e-61
3.77131e-60
1.94486e-59
1.00925e-58
5.27062e-58
2.77142e-57
1.46679e-56
7.81441e-56
4.19094e-55
2.26279e-54
1.23004e-53
6.73231e-53
3.71022e-52
2.05898e-51
1.15064e-50
6.47563e-50
3.67028e-49
2.09513e-48
1.20446e-47
6.97756e-47
4.06985e-46
2.3913e-45
1.41534e-44
8.43869e-44
5.06854e-43
3.06689e-42
1.86951e-41
1.14812e-40
7.10361e-40
4.42808e-39
2.78102e-38
1.75976e-37
1.1179e-36
7.18441e-36
4.64998e-35
3.03242e-34
1.98056e-33
1.2956e-32
8.48845e-32
5.5693e-31
3.65871e-30
2.40632e-29
1.58424e-28
1.04392e-27
6.88375e-27
4.54175e-26
2.99767e-25
1.97891e-24
1.30635e-23
8.62153e-23
5.68716e-22
3.74866e-21
2.46831e-20
1.62306e-19
1.06546e-18
6.97988e-18
4.56126e-17
2.972e-16
1.9298e-15
1.24801e-14
7.96208e-14
5.10043e-13
3.24295e-12
2.04647e-11
1.28006e-10
7.92368e-10
4.84443e-09
2.91795e-08
1.72576e-07
9.97583e-07
5.61279e-06
3.07713e-05
0.000163133
0.000823834
0.0039083
0.0171238
0.0683654
8.17865e-77
6.1512e-76
3.22192e-75
1.5507e-74
7.32978e-74
3.45237e-73
1.63022e-72
7.73031e-72
3.65474e-71
1.73477e-70
8.26199e-70
3.94915e-69
1.89503e-68
9.13133e-68
4.41935e-67
2.14859e-66
1.04862e-65
5.10746e-65
2.5265e-64
1.25455e-63
6.2636e-63
3.14482e-62
1.5881e-61
8.06714e-61
4.12271e-60
2.11992e-59
1.09693e-58
5.71214e-58
2.9911e-57
1.57674e-56
8.36726e-56
4.47009e-55
2.40431e-54
1.30207e-53
7.10033e-53
3.89895e-52
2.1561e-51
1.20079e-50
6.7354e-50
3.80522e-49
2.1654e-48
1.24112e-47
7.16934e-47
4.17018e-46
2.44382e-45
1.44283e-44
8.58231e-44
5.1434e-43
3.10574e-42
1.88956e-41
1.15837e-40
7.15538e-40
4.45379e-39
2.79347e-38
1.76558e-37
1.12035e-36
7.19411e-36
4.65303e-35
3.03277e-34
1.98023e-33
1.29504e-32
8.48289e-32
5.56463e-31
3.65509e-30
2.40365e-29
1.58233e-28
1.04257e-27
6.87444e-27
4.53536e-26
2.99331e-25
1.97594e-24
1.30433e-23
8.60792e-23
5.678e-22
3.74253e-21
2.46424e-20
1.62035e-19
1.06366e-18
6.96809e-18
4.55369e-17
2.96725e-16
1.92687e-15
1.24622e-14
7.95044e-14
5.0935e-13
3.23886e-12
2.04416e-11
1.27876e-10
7.91662e-10
4.84068e-09
2.91603e-08
1.7248e-07
9.97103e-07
5.61043e-06
3.07603e-05
0.000163089
0.000823681
0.00390786
0.0171229
0.0683643
9.34315e-77
7.01988e-76
3.67204e-75
1.76472e-74
8.32802e-74
3.91576e-73
1.84565e-72
8.73468e-72
4.1209e-71
1.9517e-70
9.27344e-70
4.42175e-69
2.11638e-68
1.01707e-67
4.90887e-67
2.38003e-66
1.15962e-65
5.63072e-65
2.77634e-64
1.37408e-63
6.83794e-63
3.42202e-62
1.7225e-61
8.72167e-61
4.4429e-60
2.27721e-59
1.17449e-58
6.09625e-58
3.18458e-57
1.67392e-56
8.85623e-56
4.71729e-55
2.52991e-54
1.3662e-53
7.42855e-53
4.06769e-52
2.24323e-51
1.24598e-50
6.9708e-50
3.92834e-49
2.23003e-48
1.27516e-47
7.34942e-47
4.26566e-46
2.49457e-45
1.46986e-44
8.72653e-44
5.22042e-43
3.14689e-42
1.91153e-41
1.17008e-40
7.21768e-40
4.48678e-39
2.81085e-38
1.77466e-37
1.12495e-36
7.21755e-36
4.66475e-35
3.03852e-34
1.98314e-33
1.29641e-32
8.4887e-32
5.56657e-31
3.65527e-30
2.40313e-29
1.58161e-28
1.04191e-27
6.86896e-27
4.53122e-26
2.99032e-25
1.97386e-24
1.30292e-23
8.59848e-23
5.67188e-22
3.73867e-21
2.46186e-20
1.61893e-19
1.06281e-18
6.96277e-18
4.55028e-17
2.965e-16
1.92537e-15
1.24516e-14
7.94225e-14
5.08824e-13
3.23597e-12
2.04251e-11
1.27783e-10
7.91155e-10
4.83798e-09
2.91462e-08
1.72408e-07
9.96748e-07
5.60869e-06
3.07523e-05
0.000163057
0.00082357
0.00390755
0.0171222
0.0683635
1.05536e-76
7.92489e-76
4.14173e-75
1.98888e-74
9.37769e-74
4.40507e-73
2.07407e-72
9.80408e-72
4.61929e-71
2.18453e-70
1.03629e-69
4.93247e-69
2.35625e-68
1.12996e-67
5.44107e-67
2.63132e-66
1.27646e-65
6.21997e-65
3.05442e-64
1.50691e-63
7.47251e-63
3.72545e-62
1.86909e-61
9.42964e-61
4.78851e-60
2.44582e-59
1.25682e-58
6.49798e-58
3.38073e-57
1.77146e-56
9.34196e-56
4.95934e-55
2.65212e-54
1.42786e-53
7.74727e-53
4.2326e-52
2.32871e-51
1.29035e-50
7.20509e-50
4.05414e-49
2.29778e-48
1.31181e-47
7.54871e-47
4.37628e-46
2.55629e-45
1.50455e-44
8.92288e-44
5.33241e-43
3.21125e-42
1.94881e-41
1.19185e-40
7.34577e-40
4.56279e-39
2.85633e-38
1.8021e-37
1.14153e-36
7.31946e-36
4.72786e-35
3.07794e-34
2.00794e-33
1.31197e-32
8.58597e-32
5.62714e-31
3.6932e-30
2.42673e-29
1.59619e-28
1.05081e-27
6.92265e-27
4.56422e-26
3.01023e-25
1.98561e-24
1.31013e-23
8.64169e-23
5.69701e-22
3.75272e-21
2.46928e-20
1.62334e-19
1.06535e-18
6.977e-18
4.5579e-17
2.96882e-16
1.92842e-15
1.24758e-14
7.93414e-14
5.08524e-13
3.2338e-12
2.0413e-11
1.27716e-10
7.90787e-10
4.83601e-09
2.9136e-08
1.72357e-07
9.96489e-07
5.60741e-06
3.07464e-05
0.000163034
0.000823491
0.00390732
0.0171218
0.0683629
1.17459e-76
8.82799e-76
4.62333e-75
2.22412e-74
1.05074e-73
4.94597e-73
2.33383e-72
1.1057e-71
5.22192e-71
2.47557e-70
1.17734e-69
5.61865e-69
2.69142e-68
1.2944e-67
6.25167e-67
3.03332e-66
1.47823e-65
7.17861e-65
3.54028e-64
1.75265e-63
8.7197e-63
4.22673e-62
2.13759e-61
1.04924e-60
5.36788e-60
2.74924e-59
1.41682e-58
7.34639e-58
3.73073e-57
1.96863e-56
1.04095e-55
5.40262e-55
2.90653e-54
1.53126e-53
8.34981e-53
4.56859e-52
2.5171e-51
1.36791e-50
7.51546e-50
4.24304e-49
2.40589e-48
1.37416e-47
7.77573e-47
4.5188e-46
2.63967e-45
1.5537e-44
9.21556e-44
5.50839e-43
3.31813e-42
2.01437e-41
1.23247e-40
7.60007e-40
4.7236e-39
2.95905e-38
1.86839e-37
1.18455e-36
7.60286e-36
4.91632e-35
3.20451e-34
2.09334e-33
1.36972e-32
8.97774e-32
5.86505e-31
3.85732e-30
2.53858e-29
1.67255e-28
1.10303e-27
7.19983e-27
4.76125e-26
3.1458e-25
2.04821e-24
1.35588e-23
8.95803e-23
5.91544e-22
3.90342e-21
2.51933e-20
1.66133e-19
1.0909e-18
7.14666e-18
4.66907e-17
2.95867e-16
1.92457e-15
1.24306e-14
7.94152e-14
5.08239e-13
3.2326e-12
2.0406e-11
1.27676e-10
7.90562e-10
4.83479e-09
2.91295e-08
1.72323e-07
9.96317e-07
5.60654e-06
3.07424e-05
0.000163018
0.000823434
0.00390715
0.0171214
0.0683625
1.18791e-76
8.92628e-76
4.67233e-75
2.2472e-74
1.06142e-73
4.99535e-73
2.35674e-72
1.11639e-71
5.27174e-71
2.49893e-70
1.18836e-69
5.67091e-69
2.71638e-68
1.30641e-67
6.30977e-67
3.06159e-66
1.49155e-65
7.24138e-65
3.57008e-64
1.7672e-63
8.79146e-63
4.26133e-62
2.15484e-61
1.05761e-60
5.41003e-60
2.77055e-59
1.42769e-58
7.40222e-58
3.75888e-57
1.98328e-56
1.04862e-55
5.44206e-55
2.92743e-54
1.54213e-53
8.4081e-53
4.60009e-52
2.53429e-51
1.37721e-50
7.56619e-50
4.27142e-49
2.42191e-48
1.3833e-47
7.82761e-47
4.54902e-46
2.65744e-45
1.56428e-44
9.27918e-44
5.54712e-43
3.34198e-42
2.02923e-41
1.24184e-40
7.65981e-40
4.76214e-39
2.98421e-38
1.88499e-37
1.1956e-36
7.67749e-36
4.96728e-35
3.2397e-34
2.11775e-33
1.38674e-32
9.06338e-32
5.95679e-31
3.9196e-30
2.58262e-29
1.70382e-28
1.11402e-27
7.28674e-27
4.8237e-26
3.14649e-25
2.05244e-24
1.35911e-23
8.98231e-23
5.93382e-22
3.8385e-21
2.53481e-20
1.66872e-19
1.09665e-18
7.19258e-18
4.58194e-17
2.99364e-16
1.94465e-15
1.25783e-14
7.92201e-14
5.08238e-13
3.23265e-12
2.04061e-11
1.27677e-10
7.90564e-10
4.8348e-09
2.91295e-08
1.72323e-07
9.96318e-07
5.60655e-06
3.07424e-05
0.000163018
0.000823434
0.00390715
0.0171214
0.0683625
1.09331e-76
8.20309e-76
4.28464e-75
2.05562e-74
9.68358e-74
4.54472e-73
2.13796e-72
1.00974e-71
4.75351e-71
2.24615e-70
1.06465e-69
5.06339e-69
2.41686e-68
1.15812e-67
5.57236e-67
2.69297e-66
1.30497e-65
6.37908e-65
3.12754e-64
1.5413e-63
7.63578e-63
3.80368e-62
1.90673e-61
9.61261e-61
4.87802e-60
2.4901e-59
1.27894e-58
6.60977e-58
3.43787e-57
1.80078e-56
9.49368e-56
5.03846e-55
2.69357e-54
1.44978e-53
7.8617e-53
4.29279e-52
2.36062e-51
1.3074e-50
7.29671e-50
4.10366e-49
2.32475e-48
1.3266e-47
7.63053e-47
4.42176e-46
2.58178e-45
1.51893e-44
9.00469e-44
5.37929e-43
3.23831e-42
1.96455e-41
1.20107e-40
7.40025e-40
4.5952e-39
2.87575e-38
1.81382e-37
1.14862e-36
7.36278e-36
4.75447e-35
3.09436e-34
2.01804e-33
1.31815e-32
8.6236e-32
5.65034e-31
3.70693e-30
2.43472e-29
1.60069e-28
1.05323e-27
6.93626e-27
4.57142e-26
3.01372e-25
1.98768e-24
1.3113e-23
8.64804e-23
5.70035e-22
3.75436e-21
2.47123e-20
1.62437e-19
1.0659e-18
6.97969e-18
4.55895e-17
2.97094e-16
1.92938e-15
1.24791e-14
7.93397e-14
5.08533e-13
3.23385e-12
2.04132e-11
1.27717e-10
7.9079e-10
4.83602e-09
2.9136e-08
1.72357e-07
9.96488e-07
5.60741e-06
3.07464e-05
0.000163034
0.000823491
0.00390732
0.0171218
0.0683629
9.97673e-77
7.48549e-76
3.90937e-75
1.87577e-74
8.83812e-74
4.1492e-73
1.95273e-72
9.22786e-72
4.34733e-71
2.05606e-70
9.75598e-70
4.64566e-69
2.22068e-68
1.06586e-67
5.13805e-67
2.48821e-66
1.20963e-65
5.86555e-65
2.88737e-64
1.42667e-63
7.08774e-63
3.54115e-62
1.7795e-61
8.9955e-61
4.57493e-60
2.34108e-59
1.20552e-58
6.24751e-58
3.25879e-57
1.71107e-56
9.04429e-56
4.813e-55
2.57886e-54
1.39136e-53
7.55951e-53
4.13628e-52
2.27938e-51
1.26515e-50
7.0731e-50
3.98291e-49
2.25929e-48
1.29094e-47
7.43507e-47
4.3124e-46
2.52023e-45
1.48403e-44
8.80521e-44
5.26437e-43
3.17158e-42
1.92548e-41
1.17801e-40
7.26297e-40
4.5128e-39
2.82588e-38
1.78339e-37
1.13003e-36
7.24737e-36
4.68234e-35
3.04895e-34
1.9893e-33
1.30004e-32
8.51006e-32
5.57908e-31
3.66256e-30
2.40736e-29
1.58406e-28
1.04331e-27
6.87702e-27
4.53582e-26
2.99295e-25
1.97535e-24
1.30376e-23
8.60317e-23
5.67444e-22
3.74005e-21
2.46262e-20
1.61934e-19
1.06304e-18
6.96405e-18
4.55096e-17
2.96537e-16
1.92554e-15
1.24524e-14
7.94258e-14
5.08839e-13
3.23602e-12
2.04253e-11
1.27784e-10
7.91156e-10
4.83798e-09
2.91462e-08
1.72408e-07
9.96746e-07
5.60868e-06
3.07523e-05
0.000163057
0.00082357
0.00390755
0.0171222
0.0683635
8.97211e-77
6.73304e-76
3.51743e-75
1.68836e-74
7.95887e-74
3.73862e-73
1.7607e-72
8.32701e-72
3.92656e-71
1.85895e-70
8.8306e-70
4.2101e-69
2.01509e-68
9.68508e-68
4.67538e-67
2.26746e-66
1.10442e-65
5.41361e-65
2.6681e-64
1.32188e-63
6.58501e-63
3.29879e-62
1.6621e-61
8.42421e-61
4.29558e-60
2.20385e-59
1.13778e-58
5.91164e-58
3.09144e-57
1.62728e-56
8.62292e-56
4.60013e-55
2.47083e-54
1.33629e-53
7.27743e-53
3.99113e-52
2.20435e-51
1.22619e-50
6.86994e-50
3.87659e-49
2.20347e-48
1.26153e-47
7.27941e-47
4.22983e-46
2.47631e-45
1.46062e-44
8.68017e-44
5.1975e-43
3.13579e-42
1.90633e-41
1.16777e-40
7.20831e-40
4.4837e-39
2.81044e-38
1.77523e-37
1.12585e-36
7.22559e-36
4.6711e-35
3.04317e-34
1.98616e-33
1.29841e-32
8.50185e-32
5.57521e-31
3.66093e-30
2.40683e-29
1.58403e-28
1.04348e-27
6.87912e-27
4.53774e-26
2.9945e-25
1.97652e-24
1.30462e-23
8.60935e-23
5.67869e-22
3.74287e-21
2.46445e-20
1.62053e-19
1.06381e-18
6.96914e-18
4.55432e-17
2.96758e-16
1.92704e-15
1.24631e-14
7.95093e-14
5.09376e-13
3.23899e-12
2.04421e-11
1.27879e-10
7.91671e-10
4.84071e-09
2.91603e-08
1.7248e-07
9.97104e-07
5.61044e-06
3.07603e-05
0.000163089
0.000823681
0.00390786
0.0171229
0.0683642
7.87868e-77
5.9161e-76
3.09328e-75
1.48631e-74
7.01508e-74
3.30005e-73
1.55669e-72
7.37563e-72
3.48512e-71
1.65367e-70
7.8746e-70
3.76416e-69
1.8067e-68
8.70936e-68
4.21762e-67
2.05218e-66
1.00298e-65
4.89122e-65
2.422e-64
1.20412e-63
6.0197e-63
3.02554e-62
1.52922e-61
7.77492e-61
3.9772e-60
2.04717e-59
1.0604e-58
5.52793e-58
2.90047e-57
1.53187e-56
8.14433e-56
4.35911e-55
2.34898e-54
1.27445e-53
6.96237e-53
3.83006e-52
2.12172e-51
1.18367e-50
6.65041e-50
3.76328e-49
2.14489e-48
1.23123e-47
7.12235e-47
4.14857e-46
2.43433e-45
1.43899e-44
8.56927e-44
5.14105e-43
3.10736e-42
1.89222e-41
1.16092e-40
7.17619e-40
4.46943e-39
2.80468e-38
1.77336e-37
1.12574e-36