/*--------------------------------*- C++ -*----------------------------------*\
| =========                 |                                                 |
| \\      /  F ield         | OpenFOAM: The Open Source CFD Toolbox           |
|  \\    /   O peration     | Version:  2406                                  |
|   \\  /    A nd           | Website:  www.openfoam.com                      |
|    \\/     M anipulation  |                                                 |
\*---------------------------------------------------------------------------*/
FoamFile
{
    version     2.0;
    format      ascii;
    arch        "LSB;label=32;scalar=64";
    class       surfaceScalarField;
    location    "6.4416e-05";
    object      phi;
}
// * * * * * * * * * * * * * * * * * * * * * * * * * * * * * * * * * * * * * //

dimensions      [1 0 -1 0 0 0 0];

oriented        oriented;

internalField   nonuniform List<scalar> 
7860
(
-9.35087e-07
2.53769e-06
-9.75148e-07
2.40868e-06
-6.00242e-07
2.20763e-06
-2.44344e-07
2.03463e-06
-9.79219e-09
1.88089e-06
9.1489e-08
1.74662e-06
1.22598e-07
1.63054e-06
1.23983e-07
1.52987e-06
1.15192e-07
1.44163e-06
1.04263e-07
1.36393e-06
9.39932e-08
1.29508e-06
8.50875e-08
1.23364e-06
7.753e-08
1.17844e-06
7.11129e-08
1.12853e-06
6.56006e-08
1.08316e-06
6.08343e-08
1.04172e-06
5.66579e-08
1.00371e-06
5.2955e-08
9.68739e-07
4.96458e-08
9.36438e-07
4.66645e-08
9.06523e-07
4.39535e-08
8.7874e-07
4.14813e-08
8.52886e-07
3.92111e-08
8.28785e-07
3.71146e-08
8.06286e-07
3.51681e-08
7.85252e-07
3.33513e-08
7.65565e-07
3.16467e-08
7.47122e-07
3.004e-08
7.29827e-07
2.85192e-08
7.13598e-07
2.70747e-08
6.98355e-07
2.57033e-08
6.84026e-07
2.43999e-08
6.70556e-07
2.31564e-08
6.57903e-07
2.19652e-08
6.46023e-07
2.08201e-08
6.34877e-07
1.97163e-08
6.24426e-07
1.86509e-08
6.14632e-07
1.76213e-08
6.05463e-07
1.66246e-08
5.96891e-07
1.56576e-08
5.88888e-07
1.47173e-08
5.81431e-07
1.38006e-08
5.74499e-07
1.29049e-08
5.6807e-07
1.20285e-08
5.62123e-07
1.11703e-08
5.56638e-07
1.03288e-08
5.51607e-07
9.50157e-09
5.47024e-07
8.68657e-09
5.42881e-07
7.88161e-09
5.39171e-07
7.08436e-09
5.35887e-07
6.29217e-09
5.33025e-07
5.50257e-09
5.30583e-07
4.71461e-09
5.28559e-07
3.93236e-09
5.26953e-07
3.15939e-09
5.25769e-07
2.39463e-09
5.2501e-07
1.63738e-09
5.24683e-07
8.90178e-10
5.24799e-07
1.38334e-10
5.25402e-07
-6.31483e-10
5.26494e-07
-1.41368e-09
5.28038e-07
-2.20776e-09
5.30038e-07
-3.01465e-09
5.32494e-07
-3.83474e-09
5.35403e-07
-4.6692e-09
5.38769e-07
-5.51978e-09
5.42597e-07
-6.38872e-09
5.46896e-07
-7.27876e-09
5.51679e-07
-8.19341e-09
5.56958e-07
-9.13802e-09
5.62753e-07
-1.01235e-08
5.69081e-07
-1.11382e-08
5.75969e-07
-1.21904e-08
5.83444e-07
-1.32881e-08
5.91533e-07
-1.44396e-08
6.00272e-07
-1.5654e-08
6.09698e-07
-1.69427e-08
6.19855e-07
-1.83193e-08
6.30789e-07
-1.97961e-08
6.42548e-07
-2.13641e-08
6.55178e-07
-2.29295e-08
6.68738e-07
-2.47811e-08
6.83779e-07
-2.68384e-08
6.99964e-07
-2.91173e-08
7.1746e-07
-3.16707e-08
7.36454e-07
-3.45737e-08
7.57156e-07
-3.79265e-08
7.79817e-07
-4.18633e-08
8.04743e-07
-4.65519e-08
8.32308e-07
-5.21488e-08
8.62986e-07
-5.86205e-08
8.9739e-07
-6.51691e-08
9.36309e-07
-6.85114e-08
9.8066e-07
-5.92097e-08
1.03133e-06
-1.50288e-08
1.08891e-06
1.04652e-07
1.15343e-06
3.14753e-07
1.22401e-06
5.62896e-07
1.29286e-06
5.27171e-07
1.33388e-06
1.29195e-06
-4.89792e-07
1.67026e-06
-9.70872e-07
1.50834e-06
-1.01091e-06
1.35565e-06
-9.069e-07
1.26346e-06
-7.79707e-07
1.19388e-06
-6.65451e-07
1.13304e-06
-5.7094e-07
1.07699e-06
-4.95888e-07
1.02467e-06
-4.35432e-07
9.7631e-07
-3.86205e-07
9.31724e-07
-3.4559e-07
8.90673e-07
-3.11603e-07
8.52893e-07
-2.82773e-07
8.18112e-07
-2.58011e-07
7.86059e-07
-2.36492e-07
7.56479e-07
-2.17612e-07
7.29128e-07
-2.00897e-07
7.03786e-07
-1.86081e-07
6.80254e-07
-1.72815e-07
6.58388e-07
-1.60906e-07
6.38041e-07
-1.501e-07
6.19096e-07
-1.40244e-07
6.01431e-07
-1.31218e-07
5.84935e-07
-1.22924e-07
5.69512e-07
-1.15277e-07
5.55079e-07
-1.08205e-07
5.4156e-07
-1.01649e-07
5.28892e-07
-9.55598e-08
5.17017e-07
-8.99015e-08
5.05888e-07
-8.46426e-08
4.95467e-07
-7.96892e-08
4.85725e-07
-7.49806e-08
4.76617e-07
-7.0507e-08
4.68094e-07
-6.62592e-08
4.60117e-07
-6.22285e-08
4.52654e-07
-5.84118e-08
4.45684e-07
-5.47788e-08
4.39155e-07
-5.13087e-08
4.33053e-07
-4.79866e-08
4.27361e-07
-4.48004e-08
4.22065e-07
-4.17395e-08
4.1715e-07
-3.87938e-08
4.12602e-07
-3.59524e-08
4.08405e-07
-3.31988e-08
4.04539e-07
-3.05139e-08
4.00986e-07
-2.78841e-08
3.97747e-07
-2.53017e-08
3.94825e-07
-2.27602e-08
3.92217e-07
-2.02523e-08
3.89917e-07
-1.77704e-08
3.87924e-07
-1.53055e-08
3.86234e-07
-1.28481e-08
3.84845e-07
-1.03873e-08
3.83758e-07
-7.91099e-09
3.82972e-07
-5.40454e-09
3.82489e-07
-2.85002e-09
3.82312e-07
-2.24046e-10
3.82442e-07
2.48299e-09
3.82907e-07
5.19777e-09
3.83833e-07
7.86941e-09
3.85201e-07
1.05297e-08
3.8689e-07
1.31916e-08
3.88922e-07
1.58611e-08
3.91304e-07
1.85519e-08
3.94026e-07
2.12801e-08
3.97085e-07
2.40614e-08
4.0049e-07
2.69113e-08
4.04247e-07
2.98455e-08
4.08366e-07
3.28806e-08
4.12859e-07
3.60339e-08
4.17739e-07
3.93246e-08
4.23022e-07
4.27742e-08
4.28726e-07
4.64074e-08
4.34871e-07
5.02479e-08
4.41481e-07
5.43214e-08
4.48584e-07
5.8651e-08
4.56213e-07
6.32576e-08
4.64408e-07
6.81568e-08
4.7322e-07
7.33836e-08
4.82714e-07
7.91996e-08
4.9297e-07
8.74108e-08
5.04009e-07
9.45384e-08
5.15317e-07
1.02422e-07
5.27537e-07
1.11399e-07
5.4081e-07
1.21666e-07
5.55163e-07
1.33472e-07
5.70677e-07
1.47159e-07
5.87453e-07
1.63208e-07
6.0561e-07
1.8229e-07
6.25282e-07
2.0544e-07
6.46606e-07
2.34157e-07
6.69681e-07
2.70406e-07
6.94518e-07
3.16763e-07
7.21022e-07
3.76218e-07
7.48933e-07
4.50217e-07
7.77743e-07
5.33174e-07
8.06777e-07
5.9778e-07
8.35329e-07
5.58717e-07
8.62297e-07
1.90294e-07
8.81458e-07
8.57871e-07
-5.94583e-07
1.33977e-06
-1.10843e-06
1.20096e-06
-1.19342e-06
1.09338e-06
-1.12863e-06
1.03473e-06
-1.02883e-06
9.90893e-07
-9.2881e-07
9.51757e-07
-8.37443e-07
9.15211e-07
-7.54387e-07
8.808e-07
-6.81405e-07
8.48141e-07
-6.17624e-07
8.17153e-07
-5.61847e-07
7.87834e-07
-5.12936e-07
7.6016e-07
-4.69885e-07
7.34089e-07
-4.31831e-07
7.0956e-07
-3.98046e-07
6.86502e-07
-3.67918e-07
6.64839e-07
-3.4095e-07
6.44493e-07
-3.16588e-07
6.25392e-07
-2.9454e-07
6.07452e-07
-2.74447e-07
5.90595e-07
-2.5614e-07
5.74742e-07
-2.39396e-07
5.59829e-07
-2.2402e-07
5.45798e-07
-2.09848e-07
5.32595e-07
-1.96741e-07
5.20167e-07
-1.84577e-07
5.08465e-07
-1.73249e-07
4.97447e-07
-1.62658e-07
4.87069e-07
-1.52713e-07
4.77295e-07
-1.43337e-07
4.68085e-07
-1.34526e-07
4.59406e-07
-1.26255e-07
4.51227e-07
-1.18453e-07
4.43526e-07
-1.11056e-07
4.36277e-07
-1.04028e-07
4.29452e-07
-9.74824e-08
4.2303e-07
-9.12272e-08
4.17036e-07
-8.52259e-08
4.11449e-07
-7.94624e-08
4.06247e-07
-7.39206e-08
4.01408e-07
-6.85831e-08
3.9692e-07
-6.34323e-08
3.92766e-07
-5.84492e-08
3.88933e-07
-5.36091e-08
3.85393e-07
-4.88851e-08
3.82126e-07
-4.42572e-08
3.79142e-07
-3.97106e-08
3.76448e-07
-3.52318e-08
3.74043e-07
-3.08067e-08
3.71922e-07
-2.64207e-08
3.70082e-07
-2.20585e-08
3.68522e-07
-1.77041e-08
3.67237e-07
-1.33408e-08
3.66227e-07
-8.95067e-09
3.65492e-07
-4.51395e-09
3.6503e-07
-8.3032e-12
3.64843e-07
4.59179e-09
3.64929e-07
9.27039e-09
3.65358e-07
1.39626e-08
3.66304e-07
1.86467e-08
3.67706e-07
2.33484e-08
3.69396e-07
2.80827e-08
3.71407e-07
3.28587e-08
3.73749e-07
3.76936e-08
3.76406e-07
4.26107e-08
3.79369e-07
4.76349e-08
3.82645e-07
5.27919e-08
3.86239e-07
5.81088e-08
3.90161e-07
6.36147e-08
3.94419e-07
6.9341e-08
3.99026e-07
7.53225e-08
4.03993e-07
8.15976e-08
4.09334e-07
8.821e-08
4.15065e-07
9.52097e-08
4.21203e-07
1.02655e-07
4.27766e-07
1.10618e-07
4.34775e-07
1.19187e-07
4.42248e-07
1.28475e-07
4.50208e-07
1.38598e-07
4.5867e-07
1.4948e-07
4.67652e-07
1.59525e-07
4.77214e-07
1.72539e-07
4.87564e-07
1.87164e-07
4.98564e-07
2.03143e-07
5.1018e-07
2.20921e-07
5.2251e-07
2.40889e-07
5.35602e-07
2.63496e-07
5.49489e-07
2.89284e-07
5.6419e-07
3.18899e-07
5.79708e-07
3.53032e-07
5.9602e-07
3.92443e-07
6.13076e-07
4.38086e-07
6.30787e-07
4.90855e-07
6.49004e-07
5.51025e-07
6.67495e-07
6.16954e-07
6.85942e-07
6.80534e-07
7.03922e-07
7.13992e-07
7.20829e-07
6.35151e-07
7.35088e-07
2.29645e-07
7.40347e-07
7.05244e-07
-6.36775e-07
1.12666e-06
-1.17843e-06
1.0249e-06
-1.27395e-06
9.47536e-07
-1.21677e-06
9.09577e-07
-1.12489e-06
8.81326e-07
-1.03236e-06
8.54557e-07
-9.46829e-07
8.28136e-07
-8.69728e-07
8.02195e-07
-8.00061e-07
7.76992e-07
-7.37137e-07
7.52684e-07
-6.80303e-07
7.29352e-07
-6.28937e-07
7.07031e-07
-5.82462e-07
6.85733e-07
-5.4035e-07
6.6545e-07
-5.02125e-07
6.46164e-07
-4.67358e-07
6.27848e-07
-4.35635e-07
6.10472e-07
-4.06623e-07
5.93994e-07
-3.8002e-07
5.78377e-07
-3.55575e-07
5.6358e-07
-3.33044e-07
5.49567e-07
-3.12228e-07
5.36299e-07
-2.92949e-07
5.23738e-07
-2.75049e-07
5.1185e-07
-2.58385e-07
5.006e-07
-2.42831e-07
4.89957e-07
-2.28276e-07
4.79889e-07
-2.14619e-07
4.70368e-07
-2.01773e-07
4.61366e-07
-1.89667e-07
4.52857e-07
-1.78244e-07
4.44819e-07
-1.67453e-07
4.37229e-07
-1.57246e-07
4.3007e-07
-1.47576e-07
4.23328e-07
-1.38386e-07
4.16988e-07
-1.29481e-07
4.11037e-07
-1.20979e-07
4.05447e-07
-1.12854e-07
4.00207e-07
-1.05063e-07
3.95307e-07
-9.75713e-08
3.90738e-07
-9.03462e-08
3.8649e-07
-8.33603e-08
3.82553e-07
-7.65868e-08
3.78912e-07
-6.9995e-08
3.75535e-07
-6.35536e-08
3.72403e-07
-5.7238e-08
3.69528e-07
-5.10288e-08
3.66926e-07
-4.49072e-08
3.64595e-07
-3.88544e-08
3.62533e-07
-3.28514e-08
3.60735e-07
-2.68792e-08
3.59198e-07
-2.09184e-08
3.57919e-07
-1.49492e-08
3.56897e-07
-8.95126e-09
3.56129e-07
-2.90285e-09
3.55615e-07
3.21929e-09
3.55352e-07
9.44018e-09
3.55339e-07
1.57481e-08
3.55682e-07
2.20878e-08
3.566e-07
2.84421e-08
3.57992e-07
3.48366e-08
3.5965e-07
4.12908e-08
3.6161e-07
4.78182e-08
3.63891e-07
5.44387e-08
3.66467e-07
6.11796e-08
3.69325e-07
6.80706e-08
3.72467e-07
7.5143e-08
3.759e-07
8.24306e-08
3.7963e-07
8.99691e-08
3.83665e-07
9.77978e-08
3.88013e-07
1.05959e-07
3.92684e-07
1.14499e-07
3.97687e-07
1.2347e-07
4.03033e-07
1.3293e-07
4.08735e-07
1.42943e-07
4.14803e-07
1.53581e-07
4.2125e-07
1.64925e-07
4.28091e-07
1.77062e-07
4.35338e-07
1.90076e-07
4.43007e-07
2.04036e-07
4.51115e-07
2.19015e-07
4.59687e-07
2.35455e-07
4.68756e-07
2.53339e-07
4.78319e-07
2.73114e-07
4.88389e-07
2.94863e-07
4.98957e-07
3.18849e-07
5.10023e-07
3.45392e-07
5.21581e-07
3.74859e-07
5.33614e-07
4.07655e-07
5.46087e-07
4.44213e-07
5.58945e-07
4.84998e-07
5.72105e-07
5.30487e-07
5.85449e-07
5.81068e-07
5.98807e-07
6.3666e-07
6.11953e-07
6.9541e-07
6.2458e-07
7.49224e-07
6.36293e-07
7.70326e-07
6.46515e-07
6.76569e-07
6.53744e-07
2.50934e-07
6.51118e-07
6.01967e-07
-6.56758e-07
9.50062e-07
-1.22516e-06
8.9611e-07
-1.34062e-06
8.40415e-07
-1.2961e-06
8.13462e-07
-1.2121e-06
7.93543e-07
-1.1245e-06
7.7426e-07
-1.0422e-06
7.54663e-07
-9.66675e-07
7.34903e-07
-8.97662e-07
7.15252e-07
-8.34578e-07
6.95923e-07
-7.76849e-07
6.77066e-07
-7.23952e-07
6.58776e-07
-6.75418e-07
6.41114e-07
-6.30827e-07
6.24116e-07
-5.89801e-07
6.07796e-07
-5.51998e-07
5.9216e-07
-5.17106e-07
5.77201e-07
-4.84845e-07
5.62908e-07
-4.54969e-07
5.49264e-07
-4.2725e-07
5.36252e-07
-4.01488e-07
5.23852e-07
-3.775e-07
5.12042e-07
-3.55118e-07
5.00802e-07
-3.34196e-07
4.9011e-07
-3.14599e-07
4.79944e-07
-2.96207e-07
4.70284e-07
-2.78912e-07
4.6111e-07
-2.62614e-07
4.52401e-07
-2.47227e-07
4.4414e-07
-2.32672e-07
4.36308e-07
-2.1888e-07
4.28889e-07
-2.05789e-07
4.21867e-07
-1.93338e-07
4.15228e-07
-1.81472e-07
4.0896e-07
-1.70132e-07
4.0305e-07
-1.5926e-07
3.97486e-07
-1.48827e-07
3.92254e-07
-1.38803e-07
3.87343e-07
-1.29152e-07
3.82744e-07
-1.19842e-07
3.78449e-07
-1.1084e-07
3.74449e-07
-1.02116e-07
3.70735e-07
-9.36396e-08
3.67293e-07
-8.53776e-08
3.64084e-07
-7.7296e-08
3.61089e-07
-6.9368e-08
3.58329e-07
-6.15705e-08
3.55822e-07
-5.38811e-08
3.53568e-07
-4.62778e-08
3.51564e-07
-3.87387e-08
3.49806e-07
-3.12422e-08
3.4829e-07
-2.37666e-08
3.47015e-07
-1.62904e-08
3.45976e-07
-8.79143e-09
3.45172e-07
-1.24656e-09
3.446e-07
6.36842e-09
3.44257e-07
1.40791e-08
3.44143e-07
2.18853e-08
3.44388e-07
2.97416e-08
3.45257e-07
3.76301e-08
3.46621e-07
4.55783e-08
3.48227e-07
5.36103e-08
3.50114e-07
6.17439e-08
3.52306e-07
7.00006e-08
3.54777e-07
7.84101e-08
3.57503e-07
8.70054e-08
3.60485e-07
9.5821e-08
3.63727e-07
1.04894e-07
3.67235e-07
1.14265e-07
3.71015e-07
1.23975e-07
3.75071e-07
1.34072e-07
3.7941e-07
1.44604e-07
3.8404e-07
1.55628e-07
3.88965e-07
1.67203e-07
3.94195e-07
1.79394e-07
3.99735e-07
1.92275e-07
4.05592e-07
2.05925e-07
4.11775e-07
2.20433e-07
4.18288e-07
2.35897e-07
4.25141e-07
2.52424e-07
4.32338e-07
2.70144e-07
4.39886e-07
2.89225e-07
4.47789e-07
3.09822e-07
4.56045e-07
3.32135e-07
4.64649e-07
3.56349e-07
4.73587e-07
3.82673e-07
4.82841e-07
4.11341e-07
4.92386e-07
4.42613e-07
5.02184e-07
4.76766e-07
5.12187e-07
5.14095e-07
5.22326e-07
5.54903e-07
5.3251e-07
5.99469e-07
5.42623e-07
6.47947e-07
5.52517e-07
6.99993e-07
5.62009e-07
7.53429e-07
5.7088e-07
7.99783e-07
5.78874e-07
8.10873e-07
5.85556e-07
7.04415e-07
5.89313e-07
2.6423e-07
5.81555e-07
5.17497e-07
-6.81315e-07
8.042e-07
-1.2657e-06
7.90119e-07
-1.39348e-06
7.51566e-07
-1.35905e-06
7.31856e-07
-1.28266e-06
7.16894e-07
-1.20036e-06
7.02272e-07
-1.12139e-06
6.87286e-07
-1.04772e-06
6.71993e-07
-9.79497e-07
6.56568e-07
-9.16409e-07
6.41178e-07
-8.58069e-07
6.25957e-07
-8.04084e-07
6.11009e-07
-7.54084e-07
5.96409e-07
-7.07728e-07
5.82211e-07
-6.64701e-07
5.68453e-07
-6.24716e-07
5.55157e-07
-5.87507e-07
5.42339e-07
-5.52841e-07
5.30002e-07
-5.20492e-07
5.1815e-07
-4.90271e-07
5.06777e-07
-4.6199e-07
4.95877e-07
-4.35488e-07
4.8544e-07
-4.10614e-07
4.75457e-07
-3.87231e-07
4.65916e-07
-3.65215e-07
4.56805e-07
-3.44453e-07
4.48113e-07
-3.2484e-07
4.39825e-07
-3.06281e-07
4.3193e-07
-2.8869e-07
4.24416e-07
-2.71987e-07
4.17271e-07
-2.561e-07
4.10483e-07
-2.40963e-07
4.04042e-07
-2.26516e-07
3.97937e-07
-2.127e-07
3.92159e-07
-1.99464e-07
3.86697e-07
-1.86757e-07
3.81543e-07
-1.74537e-07
3.76688e-07
-1.62763e-07
3.72123e-07
-1.51399e-07
3.67841e-07
-1.40409e-07
3.63836e-07
-1.29759e-07
3.60099e-07
-1.19418e-07
3.56624e-07
-1.09352e-07
3.53394e-07
-9.95278e-08
3.50367e-07
-8.99092e-08
3.47524e-07
-8.04688e-08
3.44894e-07
-7.11812e-08
3.42495e-07
-6.2022e-08
3.40329e-07
-5.2967e-08
3.38394e-07
-4.39927e-08
3.36686e-07
-3.50757e-08
3.352e-07
-2.61931e-08
3.33935e-07
-1.73218e-08
3.32887e-07
-8.43842e-09
3.32053e-07
4.81106e-10
3.31429e-07
9.46174e-09
3.31015e-07
1.85294e-08
3.30806e-07
2.76965e-08
3.30948e-07
3.69295e-08
3.31752e-07
4.62097e-08
3.33074e-07
5.55657e-08
3.34612e-07
6.50258e-08
3.36407e-07
7.4611e-08
3.3849e-07
8.43438e-08
3.40834e-07
9.42552e-08
3.43406e-07
1.0438e-07
3.46206e-07
1.14753e-07
3.49236e-07
1.25414e-07
3.525e-07
1.36404e-07
3.56001e-07
1.47767e-07
3.59743e-07
1.5955e-07
3.63729e-07
1.71803e-07
3.67964e-07
1.8458e-07
3.7245e-07
1.97942e-07
3.7719e-07
2.11953e-07
3.82188e-07
2.26683e-07
3.87446e-07
2.4221e-07
3.92966e-07
2.58618e-07
3.98749e-07
2.76001e-07
4.04795e-07
2.94461e-07
4.11103e-07
3.14113e-07
4.17669e-07
3.35081e-07
4.24487e-07
3.57503e-07
4.31548e-07
3.81527e-07
4.38837e-07
4.07308e-07
4.46335e-07
4.35015e-07
4.54018e-07
4.64825e-07
4.61851e-07
4.96926e-07
4.69793e-07
5.31512e-07
4.77791e-07
5.68779e-07
4.85782e-07
6.08912e-07
4.93685e-07
6.52051e-07
5.01405e-07
6.98195e-07
5.08834e-07
7.46835e-07
5.15845e-07
7.95647e-07
5.22305e-07
8.36105e-07
5.28043e-07
8.40157e-07
5.3265e-07
7.25893e-07
5.34225e-07
2.77017e-07
5.2271e-07
4.48236e-07
-7.03947e-07
6.84635e-07
-1.29928e-06
6.98846e-07
-1.43467e-06
6.73476e-07
-1.40687e-06
6.59294e-07
-1.33626e-06
6.47902e-07
-1.25862e-06
6.36545e-07
-1.18313e-06
6.24824e-07
-1.11187e-06
6.12784e-07
-1.04514e-06
6.0054e-07
-9.82803e-07
5.8821e-07
-9.24613e-07
5.75897e-07
-8.70297e-07
5.63685e-07
-8.1958e-07
5.51645e-07
-7.72198e-07
5.39832e-07
-7.27899e-07
5.28287e-07
-6.86449e-07
5.17043e-07
-6.47627e-07
5.06123e-07
-6.11227e-07
4.95543e-07
-5.7706e-07
4.85313e-07
-5.44955e-07
4.7544e-07
-5.14748e-07
4.65926e-07
-4.86292e-07
4.5677e-07
-4.5945e-07
4.4797e-07
-4.34097e-07
4.39523e-07
-4.10119e-07
4.31423e-07
-3.8741e-07
4.23665e-07
-3.6587e-07
4.16241e-07
-3.45408e-07
4.09145e-07
-3.25942e-07
4.0237e-07
-3.07394e-07
3.95907e-07
-2.89693e-07
3.89751e-07
-2.72775e-07
3.83894e-07
-2.5658e-07
3.78328e-07
-2.41049e-07
3.73047e-07
-2.26131e-07
3.68045e-07
-2.11777e-07
3.63313e-07
-1.97941e-07
3.58848e-07
-1.8458e-07
3.54641e-07
-1.71657e-07
3.50689e-07
-1.59135e-07
3.46985e-07
-1.46978e-07
3.43524e-07
-1.35153e-07
3.40298e-07
-1.23627e-07
3.37291e-07
-1.12363e-07
3.34457e-07
-1.01326e-07
3.31779e-07
-9.04896e-08
3.29292e-07
-7.98262e-08
3.27014e-07
-6.93104e-08
3.2495e-07
-5.89169e-08
3.23096e-07
-4.86211e-08
3.21448e-07
-3.83987e-08
3.20004e-07
-2.82259e-08
3.1876e-07
-1.80787e-08
3.17713e-07
-7.93307e-09
3.16859e-07
2.2354e-09
3.16197e-07
1.24518e-08
3.15721e-07
2.27419e-08
3.15431e-07
3.31305e-08
3.1547e-07
4.35969e-08
3.16196e-07
5.41226e-08
3.17463e-07
6.47367e-08
3.18922e-07
7.54703e-08
3.2061e-07
8.63477e-08
3.22568e-07
9.73913e-08
3.24768e-07
1.08633e-07
3.27171e-07
1.20106e-07
3.29774e-07
1.31847e-07
3.32578e-07
1.43896e-07
3.35584e-07
1.56292e-07
3.38795e-07
1.69079e-07
3.42213e-07
1.82302e-07
3.45838e-07
1.96012e-07
3.49672e-07
2.10259e-07
3.53717e-07
2.25102e-07
3.57971e-07
2.406e-07
3.62436e-07
2.56821e-07
3.67109e-07
2.73835e-07
3.71989e-07
2.91721e-07
3.77073e-07
3.1056e-07
3.82356e-07
3.30443e-07
3.87832e-07
3.51467e-07
3.93494e-07
3.73737e-07
3.99329e-07
3.97365e-07
4.05324e-07
4.22467e-07
4.11461e-07
4.49168e-07
4.17718e-07
4.77596e-07
4.24067e-07
5.07884e-07
4.30475e-07
5.40168e-07
4.36902e-07
5.74581e-07
4.43302e-07
6.11251e-07
4.4962e-07
6.50288e-07
4.55793e-07
6.91756e-07
4.6175e-07
7.35585e-07
4.67415e-07
7.81213e-07
4.72703e-07
8.26314e-07
4.77524e-07
8.62445e-07
4.81742e-07
8.61741e-07
4.84921e-07
7.42435e-07
4.84939e-07
2.876e-07
4.70927e-07
3.90878e-07
-7.22015e-07
5.8555e-07
-1.32578e-06
6.18603e-07
-1.4666e-06
6.0307e-07
-1.44361e-06
5.93148e-07
-1.37736e-06
5.84516e-07
-1.3035e-06
5.75649e-07
-1.2311e-06
5.664e-07
-1.16224e-06
5.56833e-07
-1.09726e-06
5.47038e-07
-1.0361e-06
5.37103e-07
-9.78575e-07
5.27105e-07
-9.24494e-07
5.17114e-07
-8.73649e-07
5.07187e-07
-8.25836e-07
4.97374e-07
-7.80856e-07
4.87715e-07
-7.38519e-07
4.78242e-07
-6.98643e-07
4.68981e-07
-6.61055e-07
4.59952e-07
-6.25592e-07
4.51173e-07
-5.92104e-07
4.42652e-07
-5.60448e-07
4.344e-07
-5.30491e-07
4.2642e-07
-5.02112e-07
4.18717e-07
-4.75196e-07
4.11291e-07
-4.49639e-07
4.04142e-07
-4.25341e-07
3.97269e-07
-4.02211e-07
3.9067e-07
-3.80163e-07
3.84341e-07
-3.59117e-07
3.7828e-07
-3.39e-07
3.72482e-07
-3.19746e-07
3.66944e-07
-3.0129e-07
3.61661e-07
-2.83574e-07
3.56629e-07
-2.66542e-07
3.51844e-07
-2.50143e-07
3.473e-07
-2.34327e-07
3.42994e-07
-2.19049e-07
3.38922e-07
-2.04267e-07
3.35078e-07
-1.89942e-07
3.31461e-07
-1.76036e-07
3.28064e-07
-1.62515e-07
3.24884e-07
-1.49342e-07
3.21915e-07
-1.36486e-07
3.19138e-07
-1.23909e-07
3.16506e-07
-1.11577e-07
3.14004e-07
-9.94646e-08
3.11671e-07
-8.7544e-08
3.09527e-07
-7.57891e-08
3.07576e-07
-6.41742e-08
3.05815e-07
-5.2674e-08
3.04241e-07
-4.12639e-08
3.0285e-07
-2.99193e-08
3.01639e-07
-1.86162e-08
3.00605e-07
-7.33026e-09
2.99745e-07
3.96287e-09
2.99056e-07
1.52879e-08
2.98534e-07
2.66697e-08
2.98177e-07
3.81444e-08
2.98118e-07
4.97046e-08
2.98758e-07
6.13336e-08
2.9996e-07
7.30603e-08
3.0133e-07
8.49179e-08
3.02901e-07
9.69328e-08
3.04721e-07
1.09127e-07
3.06766e-07
1.21533e-07
3.0899e-07
1.34183e-07
3.11388e-07
1.47112e-07
3.13958e-07
1.60358e-07
3.16702e-07
1.7396e-07
3.19621e-07
1.8796e-07
3.22714e-07
2.02401e-07
3.25982e-07
2.17329e-07
3.29423e-07
2.32794e-07
3.33038e-07
2.48849e-07
3.36823e-07
2.65548e-07
3.40777e-07
2.82954e-07
3.44896e-07
3.0113e-07
3.49175e-07
3.20144e-07
3.5361e-07
3.40071e-07
3.58192e-07
3.60987e-07
3.62913e-07
3.82973e-07
3.67763e-07
4.06116e-07
3.72727e-07
4.30508e-07
3.77791e-07
4.56243e-07
3.82936e-07
4.83417e-07
3.8814e-07
5.12131e-07
3.93375e-07
5.42483e-07
3.98613e-07
5.74572e-07
4.03819e-07
6.08495e-07
4.08952e-07
6.44338e-07
4.13971e-07
6.82173e-07
4.18825e-07
7.22033e-07
4.23463e-07
7.63826e-07
4.27828e-07
8.0699e-07
4.31861e-07
8.49226e-07
4.35494e-07
8.82162e-07
4.38603e-07
8.78031e-07
4.40728e-07
7.55079e-07
4.39638e-07
2.95741e-07
4.24194e-07
3.42331e-07
-7.35832e-07
5.0196e-07
-1.34631e-06
5.46881e-07
-1.49148e-06
5.38563e-07
-1.47229e-06
5.31892e-07
-1.4095e-06
5.25428e-07
-1.3387e-06
5.18528e-07
-1.26892e-06
5.11226e-07
-1.20222e-06
5.03608e-07
-1.13894e-06
4.95751e-07
-1.07905e-06
4.87725e-07
-1.02241e-06
4.79593e-07
-9.68862e-07
4.7141e-07
-9.1824e-07
4.63226e-07
-8.70384e-07
4.55083e-07
-8.25131e-07
4.47017e-07
-7.82323e-07
4.39059e-07
-7.41806e-07
4.31234e-07
-7.03437e-07
4.23562e-07
-6.67076e-07
4.16063e-07
-6.32592e-07
4.08749e-07
-5.9986e-07
4.01631e-07
-5.68763e-07
3.94718e-07
-5.39192e-07
3.88016e-07
-5.11043e-07
3.81531e-07
-4.84219e-07
3.75264e-07
-4.58632e-07
3.69218e-07
-4.34194e-07
3.63394e-07
-4.10828e-07
3.57792e-07
-3.88458e-07
3.5241e-07
-3.67015e-07
3.47249e-07
-3.46435e-07
3.42306e-07
-3.26658e-07
3.37579e-07
-3.07628e-07
3.33066e-07
-2.89289e-07
3.28765e-07
-2.71591e-07
3.24672e-07
-2.54488e-07
3.20786e-07
-2.37934e-07
3.17103e-07
-2.21889e-07
3.13622e-07
-2.06314e-07
3.10338e-07
-1.91171e-07
3.0725e-07
-1.76424e-07
3.04353e-07
-1.62039e-07
3.01642e-07
-1.47982e-07
2.99099e-07
-1.34218e-07
2.96674e-07
-1.20716e-07
2.94355e-07
-1.07449e-07
2.92186e-07
-9.43902e-08
2.90188e-07
-8.15143e-08
2.88361e-07
-6.87949e-08
2.86704e-07
-5.62067e-08
2.85214e-07
-4.37249e-08
2.83888e-07
-3.13249e-08
2.82723e-07
-1.89827e-08
2.81716e-07
-6.67444e-09
2.80864e-07
5.62383e-09
2.80164e-07
1.7936e-08
2.79612e-07
3.02863e-08
2.79205e-07
4.2719e-08
2.79057e-07
5.52406e-08
2.79607e-07
6.78387e-08
2.80736e-07
8.05413e-08
2.82011e-07
9.33826e-08
2.83458e-07
1.0639e-07
2.85132e-07
1.19587e-07
2.87015e-07
1.33003e-07
2.89055e-07
1.46669e-07
2.91242e-07
1.6062e-07
2.93578e-07
1.74891e-07
2.96061e-07
1.89519e-07
2.98691e-07
2.04543e-07
3.01467e-07
2.20003e-07
3.04388e-07
2.35943e-07
3.07452e-07
2.52408e-07
3.10657e-07
2.69446e-07
3.13998e-07
2.87107e-07
3.17473e-07
3.05447e-07
3.21077e-07
3.24522e-07
3.24803e-07
3.44393e-07
3.28645e-07
3.65122e-07
3.32595e-07
3.86775e-07
3.36642e-07
4.09423e-07
3.40774e-07
4.33138e-07
3.44979e-07
4.57992e-07
3.49241e-07
4.84063e-07
3.53541e-07
5.11429e-07
3.57859e-07
5.40166e-07
3.62172e-07
5.70355e-07
3.66453e-07
6.0207e-07
3.70674e-07
6.35384e-07
3.74801e-07
6.70364e-07
3.78801e-07
7.07066e-07
3.82634e-07
7.4551e-07
3.86262e-07
7.85601e-07
3.8964e-07
8.26783e-07
3.92724e-07
8.66779e-07
3.95459e-07
8.97262e-07
3.97728e-07
8.90517e-07
3.99063e-07
7.64764e-07
3.97219e-07
3.0195e-07
3.81175e-07
3.00258e-07
-7.46474e-07
4.30133e-07
-1.36231e-06
4.818e-07
-1.51104e-06
4.78701e-07
-1.49496e-06
4.74488e-07
-1.43501e-06
4.6973e-07
-1.36676e-06
4.64403e-07
-1.29919e-06
4.58664e-07
-1.23436e-06
4.52614e-07
-1.17262e-06
4.4632e-07
-1.11396e-06
4.39843e-07
-1.05824e-06
4.33235e-07
-1.00534e-06
4.26541e-07
-9.55121e-07
4.19803e-07
-9.07438e-07
4.13059e-07
-8.62159e-07
4.0634e-07
-8.19149e-07
3.99674e-07
-7.78277e-07
3.93085e-07
-7.39416e-07
3.86593e-07
-7.02448e-07
3.80217e-07
-6.67257e-07
3.7397e-07
-6.33735e-07
3.67864e-07
-6.01778e-07
3.6191e-07
-5.71286e-07
3.56116e-07
-5.42166e-07
3.50488e-07
-5.14331e-07
3.45032e-07
-4.87698e-07
3.39751e-07
-4.62189e-07
3.34648e-07
-4.37731e-07
3.29726e-07
-4.14253e-07
3.24985e-07
-3.91692e-07
3.20426e-07
-3.69986e-07
3.16049e-07
-3.49079e-07
3.11854e-07
-3.28915e-07
3.0784e-07
-3.09444e-07
3.04006e-07
-2.90616e-07
3.00352e-07
-2.72386e-07
2.96874e-07
-2.54711e-07
2.93573e-07
-2.37551e-07
2.90447e-07
-2.20867e-07
2.87493e-07
-2.04624e-07
2.8471e-07
-1.88784e-07
2.82094e-07
-1.73315e-07
2.79642e-07
-1.58183e-07
2.77334e-07
-1.43355e-07
2.7512e-07
-1.28802e-07
2.72992e-07
-1.145e-07
2.70996e-07
-1.00421e-07
2.69151e-07
-8.65397e-08
2.67458e-07
-7.28305e-08
2.65916e-07
-5.9268e-08
2.64523e-07
-4.58274e-08
2.63274e-07
-3.24846e-08
2.62168e-07
-1.9216e-08
2.61202e-07
-5.99824e-09
2.60373e-07
7.1917e-09
2.59677e-07
2.03768e-08
2.59112e-07
3.35802e-08
2.58673e-07
4.68514e-08
2.5845e-07
6.02106e-08
2.5891e-07
7.36525e-08
2.5996e-07
8.72038e-08
2.61134e-07
1.00898e-07
2.62454e-07
1.14765e-07
2.63977e-07
1.28827e-07
2.65693e-07
1.43112e-07
2.67545e-07
1.5765e-07
2.69523e-07
1.72473e-07
2.71626e-07
1.87614e-07
2.73853e-07
2.03108e-07
2.76202e-07
2.1899e-07
2.78673e-07
2.35299e-07
2.81263e-07
2.52074e-07
2.83969e-07
2.69355e-07
2.86788e-07
2.87188e-07
2.89716e-07
3.05617e-07
2.92748e-07
3.24691e-07
2.9588e-07
3.4446e-07
2.99103e-07
3.64976e-07
3.02412e-07
3.86296e-07
3.05797e-07
4.08474e-07
3.09247e-07
4.31572e-07
3.12753e-07
4.55648e-07
3.16299e-07
4.80766e-07
3.19873e-07
5.06988e-07
3.23457e-07
5.34379e-07
3.27033e-07
5.63002e-07
3.30581e-07
5.92922e-07
3.34078e-07
6.24201e-07
3.37499e-07
6.56901e-07
3.40819e-07
6.91076e-07
3.44009e-07
7.26775e-07
3.47038e-07
7.64014e-07
3.49875e-07
8.02698e-07
3.52486e-07
8.4228e-07
3.54835e-07
8.80497e-07
3.56875e-07
9.09048e-07
3.58496e-07
9.0025e-07
3.59237e-07
7.72291e-07
3.56911e-07
3.0675e-07
3.40899e-07
2.62977e-07
-7.54807e-07
3.67345e-07
-1.37493e-06
4.21925e-07
-1.52661e-06
4.22513e-07
-1.5131e-06
4.20143e-07
-1.45552e-06
4.16731e-07
-1.3894e-06
4.12671e-07
-1.32371e-06
4.08204e-07
-1.26049e-06
4.03432e-07
-1.20012e-06
3.9842e-07
-1.14257e-06
3.93216e-07
-1.08774e-06
3.87867e-07
-1.03551e-06
3.8241e-07
-9.85751e-07
3.76884e-07
-9.38349e-07
3.71319e-07
-8.9318e-07
3.65743e-07
-8.50129e-07
3.60183e-07
-8.0908e-07
3.54659e-07
-7.69923e-07
3.49192e-07
-7.32551e-07
3.43799e-07
-6.96863e-07
3.38493e-07
-6.62762e-07
3.33286e-07
-6.30154e-07
3.28191e-07
-5.9895e-07
3.23214e-07
-5.69066e-07
3.18365e-07
-5.40422e-07
3.13648e-07
-5.12943e-07
3.0907e-07
-4.86558e-07
3.04634e-07
-4.61196e-07
3.00344e-07
-4.36795e-07
2.96201e-07
-4.13292e-07
2.92209e-07
-3.90631e-07
2.88367e-07
-3.68758e-07
2.84677e-07
-3.47622e-07
2.8114e-07
-3.27173e-07
2.77754e-07
-3.07365e-07
2.74521e-07
-2.88155e-07
2.7144e-07
-2.695e-07
2.68509e-07
-2.51363e-07
2.65729e-07
-2.33705e-07
2.63097e-07
-2.1649e-07
2.60614e-07
-1.99684e-07
2.58277e-07
-1.83255e-07
2.56081e-07
-1.67168e-07
2.54008e-07
-1.51395e-07
2.52008e-07
-1.35909e-07
2.50076e-07
-1.20685e-07
2.4826e-07
-1.05699e-07
2.46577e-07
-9.09244e-08
2.45028e-07
-7.63358e-08
2.43611e-07
-6.19082e-08
2.42324e-07
-4.76173e-08
2.41165e-07
-3.34396e-08
2.40131e-07
-1.93521e-08
2.39218e-07
-5.33215e-09
2.38426e-07
8.64226e-09
2.3775e-07
2.25932e-08
2.37188e-07
3.65426e-08
2.36737e-07
5.05421e-08
2.36454e-07
6.46249e-08
2.36828e-07
7.87955e-08
2.37793e-07
9.30792e-08
2.38864e-07
1.07508e-07
2.40054e-07
1.22112e-07
2.41423e-07
1.36916e-07
2.4297e-07
1.51944e-07
2.44634e-07
1.67225e-07
2.46404e-07
1.82789e-07
2.48279e-07
1.98665e-07
2.50258e-07
2.14887e-07
2.52337e-07
2.31487e-07
2.54516e-07
2.48499e-07
2.56792e-07
2.65961e-07
2.59162e-07
2.8391e-07
2.61621e-07
3.02384e-07
2.64167e-07
3.21424e-07
2.66793e-07
3.41075e-07
2.69495e-07
3.6138e-07
2.72264e-07
3.82386e-07
2.75095e-07
4.04139e-07
2.77978e-07
4.26691e-07
2.80904e-07
4.5009e-07
2.83862e-07
4.74392e-07
2.8684e-07
4.99647e-07
2.89825e-07
5.2591e-07
2.92801e-07
5.53236e-07
2.95754e-07
5.81681e-07
2.98665e-07
6.11298e-07
3.01514e-07
6.42144e-07
3.04282e-07
6.7427e-07
3.06946e-07
7.0773e-07
3.09483e-07
7.42564e-07
3.11868e-07
7.78791e-07
3.14076e-07
8.16315e-07
3.16078e-07
8.54595e-07
3.17847e-07
8.91379e-07
3.1934e-07
9.18384e-07
3.20456e-07
9.07948e-07
3.20752e-07
7.78232e-07
3.18152e-07
3.10521e-07
3.02656e-07
2.2928e-07
-7.61411e-07
3.1157e-07
-1.38505e-06
3.66129e-07
-1.53915e-06
3.69226e-07
-1.52779e-06
3.68224e-07
-1.47219e-06
3.65878e-07
-1.40786e-06
3.62851e-07
-1.34376e-06
3.59427e-07
-1.28194e-06
3.5571e-07
-1.22275e-06
3.51758e-07
-1.1662e-06
3.47613e-07
-1.11218e-06
3.43315e-07
-1.06058e-06
3.38897e-07
-1.0113e-06
3.34392e-07
-9.64214e-07
3.29828e-07
-9.19224e-07
3.25229e-07
-8.76222e-07
3.20619e-07
-8.35106e-07
3.16018e-07
-7.95774e-07
3.11444e-07
-7.58135e-07
3.06913e-07
-7.22095e-07
3.02437e-07
-6.87565e-07
2.9803e-07
-6.54461e-07
2.93703e-07
-6.22703e-07
2.89463e-07
-5.92213e-07
2.85319e-07
-5.62919e-07
2.81278e-07
-5.34753e-07
2.77344e-07
-5.07646e-07
2.73523e-07
-4.81536e-07
2.69819e-07
-4.56363e-07
2.66235e-07
-4.32068e-07
2.62772e-07
-4.086e-07
2.59435e-07
-3.85905e-07
2.56223e-07
-3.63937e-07
2.53138e-07
-3.42648e-07
2.50181e-07
-3.21995e-07
2.47352e-07
-3.01935e-07
2.44652e-07
-2.8243e-07
2.4208e-07
-2.6344e-07
2.39636e-07
-2.44931e-07
2.3732e-07
-2.26866e-07
2.35131e-07
-2.09213e-07
2.33067e-07
-1.9194e-07
2.31124e-07
-1.75014e-07
2.29284e-07
-1.5841e-07
2.27499e-07
-1.42103e-07
2.25768e-07
-1.26069e-07
2.24139e-07
-1.10285e-07
2.22624e-07
-9.47242e-08
2.21226e-07
-7.93618e-08
2.19943e-07
-6.41733e-08
2.18773e-07
-4.91352e-08
2.17713e-07
-3.42243e-08
2.16762e-07
-1.94187e-08
2.15917e-07
-4.69659e-09
2.15175e-07
9.96314e-09
2.14535e-07
2.45815e-08
2.13993e-07
3.91793e-08
2.13546e-07
5.38067e-08
2.13224e-07
6.85096e-08
2.13519e-07
8.33052e-08
2.14394e-07
9.82168e-08
2.15358e-07
1.13273e-07
2.16419e-07
1.28505e-07
2.17635e-07
1.4394e-07
2.19008e-07
1.596e-07
2.20485e-07
1.75509e-07
2.22052e-07
1.91697e-07
2.23705e-07
2.08191e-07
2.25443e-07
2.25021e-07
2.27263e-07
2.42217e-07
2.29165e-07
2.59812e-07
2.31145e-07
2.77839e-07
2.332e-07
2.9633e-07
2.35325e-07
3.15322e-07
2.37518e-07
3.34852e-07
2.39773e-07
3.54957e-07
2.42084e-07
3.75678e-07
2.44444e-07
3.97056e-07
2.46848e-07
4.19131e-07
2.49286e-07
4.41949e-07
2.5175e-07
4.65555e-07
2.5423e-07
4.89993e-07
2.56716e-07
5.15311e-07
2.59194e-07
5.41556e-07
2.61653e-07
5.68777e-07
2.64079e-07
5.97023e-07
2.66455e-07
6.26343e-07
2.68766e-07
6.56788e-07
2.70994e-07
6.88405e-07
2.7312e-07
7.21244e-07
2.75126e-07
7.55346e-07
2.7699e-07
7.90726e-07
2.7869e-07
8.27291e-07
2.80204e-07
8.64504e-07
2.81507e-07
9.00122e-07
2.82565e-07
9.25877e-07
2.83281e-07
9.14118e-07
2.83246e-07
7.82986e-07
2.80532e-07
3.13536e-07
2.65924e-07
1.98283e-07
-7.66737e-07
2.61326e-07
-1.39325e-06
3.13591e-07