/*--------------------------------*- C++ -*----------------------------------*\
| =========                 |                                                 |
| \\      /  F ield         | OpenFOAM: The Open Source CFD Toolbox           |
|  \\    /   O peration     | Version:  2406                                  |
|   \\  /    A nd           | Website:  www.openfoam.com                      |
|    \\/     M anipulation  |                                                 |
\*---------------------------------------------------------------------------*/
FoamFile
{
    version     2.0;
    format      ascii;
    arch        "LSB;label=32;scalar=64";
    class       volScalarField;
    location    "6.4416e-05";
    object      Qdot;
}
// * * * * * * * * * * * * * * * * * * * * * * * * * * * * * * * * * * * * * //

dimensions      [1 -1 -3 0 0 0 0];

internalField   nonuniform List<scalar> 
4000
(
2.07185e-161
5.21894e-159
9.64338e-158
9.7558e-157
8.3242e-156
6.60524e-155
5.05523e-154
3.76878e-153
2.76069e-152
1.99782e-151
1.43337e-150
1.02221e-149
7.25994e-149
5.14228e-148
3.63655e-147
2.56971e-146
1.81577e-145
1.28303e-144
9.07757e-144
6.43924e-143
4.56977e-142
3.2504e-141
2.31529e-140
1.65126e-139
1.18063e-138
8.45668e-138
6.06948e-137
4.36503e-136
3.1457e-135
2.27169e-134
1.64394e-133
1.19213e-132
8.66297e-132
6.30818e-131
4.60286e-130
3.36534e-129
2.46545e-128
1.80974e-127
1.33099e-126
9.80751e-126
7.24017e-125
5.35461e-124
3.96706e-123
2.94406e-122
2.18916e-121
1.63044e-120
1.21625e-119
9.08675e-119
6.79893e-118
5.09442e-117
3.8225e-116
2.87191e-115
2.16043e-114
1.62711e-113
1.22671e-112
9.25733e-112
6.99222e-111
5.28558e-110
3.99834e-109
3.02647e-108
2.29202e-107
1.73652e-106
1.31609e-105
9.97737e-105
7.56562e-104
5.73778e-103
4.35193e-102
3.30082e-101
2.50337e-100
1.89819e-99
1.43886e-98
1.09018e-97
8.2549e-97
6.24572e-96
4.72086e-95
3.56391e-94
2.68649e-93
2.02145e-92
1.51779e-91
1.13671e-90
8.48745e-90
6.31468e-89
4.67802e-88
3.44595e-87
2.52616e-86
1.83903e-85
1.32771e-84
9.49195e-84
6.70631e-83
4.28396e-82
2.92618e-81
1.96143e-80
1.28056e-79
8.08773e-79
4.89221e-78
2.79487e-77
1.4671e-76
6.36812e-76
1.12221e-75
3.24609e-76
1.86062e-160
0
5.74517e-157
1.21531e-155
1.31592e-154
1.15702e-153
9.57467e-153
7.40288e-152
5.49728e-151
3.98549e-150
2.84134e-149
2.00224e-148
1.39972e-147
9.73249e-147
6.74363e-146
4.66081e-145
3.20709e-144
2.2147e-143
1.52112e-142
1.05558e-141
7.33096e-141
5.10093e-140
3.55649e-139
2.48509e-138
1.74038e-137
1.22168e-136
8.59586e-136
6.0626e-135
4.28613e-134
3.03744e-133
2.15764e-132
1.53627e-131
1.09638e-130
7.84233e-130
5.62216e-129
4.03942e-128
2.90851e-127
2.09866e-126
1.51745e-125
1.09941e-124
7.98112e-124
5.80497e-123
4.22923e-122
3.08226e-121
2.2551e-120
1.65211e-119
1.21239e-118
8.91168e-118
6.56105e-117
4.838e-116
3.57288e-115
2.6425e-114
1.9572e-113
1.45165e-112
1.07816e-111
8.01816e-111
5.97073e-110
4.45167e-109
3.32311e-108
2.48358e-107
1.85825e-106
1.39181e-105
1.04285e-104
7.8171e-104
5.8619e-103
4.39716e-102
3.29928e-101
2.47598e-100
1.85831e-99
1.39475e-98
1.04671e-97
7.8534e-97
5.89017e-96
4.41536e-95
3.30745e-94
2.47523e-93
1.85021e-92
1.38093e-91
1.0288e-90
7.64732e-90
5.66929e-89
4.18941e-88
3.08376e-87
2.25887e-86
1.64011e-85
1.18767e-84
8.52413e-84
6.05817e-83
3.98554e-82
2.69343e-81
1.83398e-80
1.22135e-79
7.9195e-79
4.96861e-78
2.98437e-77
1.6673e-76
9.01427e-76
3.88932e-75
6.53492e-75
1.96027e-75
1.42684e-156
2.30239e-154
1.80171e-153
7.99595e-153
4.37223e-152
2.37966e-151
1.2899e-150
7.00094e-150
3.94857e-149
2.23951e-148
1.28734e-147
7.49497e-147
4.41641e-146
2.63222e-145
1.58586e-144
9.64265e-144
5.87318e-143
3.43169e-142
2.04715e-141
1.23284e-140
7.79853e-140
4.97389e-139
3.19551e-138
2.06731e-137
1.3463e-136
8.82369e-136
5.81847e-135
3.85932e-134
2.57422e-133
1.72636e-132
1.16376e-131
7.88448e-131
5.36742e-130
3.67088e-129
2.52184e-128
1.73995e-127
1.20549e-126
8.38562e-126
5.85592e-125
4.10476e-124
2.88776e-123
2.03873e-122
1.4437e-121
1.02288e-120
7.2993e-120
5.22118e-119
3.74609e-118
2.69579e-117
1.94565e-116
1.40826e-115
1.02216e-114
7.4395e-114
5.42925e-113
3.9727e-112
2.91448e-111
2.14362e-110
1.58063e-109
1.1684e-108
8.658e-108
6.43127e-107
4.78868e-106
3.57371e-105
2.67034e-104
1.99757e-103
1.49601e-102
1.12158e-101
8.41709e-101
6.3225e-100
4.75315e-99
3.57598e-98
2.69196e-97
2.02745e-96
1.52752e-95
1.15104e-94
8.67308e-94
6.53389e-93
4.92019e-92
3.70242e-91
2.78294e-90
2.0889e-89
1.56516e-88
1.1699e-87
8.73231e-87
6.43796e-86
4.75128e-85
3.4882e-84
2.5445e-83
1.84063e-82
1.2643e-81
8.5317e-81
5.94947e-80
4.07423e-79
2.72301e-78
1.72948e-77
1.06711e-76
6.30592e-76
3.45419e-75
1.58434e-74
2.82255e-74
9.06367e-75
4.10576e-155
7.4533e-153
6.91879e-152
3.65138e-151
1.66648e-150
7.53944e-150
3.42501e-149
1.56723e-148
7.52454e-148
3.65408e-147
1.81312e-146
9.18245e-146
4.7406e-145
2.49197e-144
1.33214e-143
7.2296e-143
3.99039e-142
2.2733e-141
1.296e-140
7.62257e-140
4.44421e-139
2.62117e-138
1.56322e-137
9.42325e-137
5.73842e-136
3.52824e-135
2.18951e-134
1.37077e-133
8.6546e-133
5.50857e-132
3.53342e-131
2.28333e-130
1.48611e-129
9.73895e-129
6.42448e-128
4.26513e-127
2.84898e-126
1.91435e-125
1.29372e-124
8.79146e-124
6.0063e-123
4.12477e-122
2.84534e-121
1.9646e-120
1.37062e-119
9.5958e-119
6.74831e-118
4.76673e-117
3.38156e-116
2.40903e-115
1.7233e-114
1.23776e-113
8.92569e-113
6.46166e-112
4.69588e-111
3.42558e-110
2.50827e-109
1.84338e-108
1.35969e-107
1.00655e-106
7.478e-106
5.57457e-105
4.16416e-104
3.116e-103
2.33582e-102
1.75396e-101
1.31916e-100
9.93642e-100
7.49495e-99
5.66034e-98
4.27945e-97
3.23846e-96
2.45274e-95
1.85888e-94
1.40947e-93
1.06896e-92
8.10603e-92
6.14521e-91
4.65613e-90
3.52478e-89
2.66502e-88
2.01152e-87
1.51174e-86
1.12048e-85
8.40121e-85
6.24745e-84
4.6209e-83
3.39232e-82
2.25283e-81
1.62598e-80
1.15506e-79
8.07509e-79
5.51736e-78
3.56012e-77
2.25651e-76
1.36973e-75
7.63354e-75
3.60397e-74
6.60183e-74
2.17565e-74
1.45258e-153
2.27075e-151
1.8391e-150
8.45492e-150
3.4909e-149
1.42223e-148
5.79067e-148
2.38161e-147
1.02671e-146
4.479e-146
2.00219e-145
9.16499e-145
4.29167e-144
2.05371e-143
1.00313e-142
4.99357e-142
2.53546e-141
1.30607e-140
6.75315e-140
3.62514e-139
1.96388e-138
1.07981e-137
6.02173e-137
3.4032e-136
1.94836e-135
1.12922e-134
6.62143e-134
3.92637e-133
2.35355e-132
1.42542e-131
8.71909e-131
5.38448e-130
3.35585e-129
2.11009e-128
1.33814e-127
8.55597e-127
5.51433e-126
3.58135e-125
2.34331e-124
1.54433e-123
1.0249e-122
6.84793e-122
4.6023e-121
3.0975e-120
2.1128e-119
1.4478e-118
9.97975e-118
6.91903e-117
4.82427e-116
3.38241e-115
2.38441e-114
1.68985e-113
1.20389e-112
8.62104e-112
6.2048e-111
4.48807e-110
3.26231e-109
2.38285e-108
1.74885e-107
1.28964e-106
9.55509e-106
7.11151e-105
5.30815e-104
3.97121e-103
2.97804e-102
2.23828e-101
1.68595e-100
1.27244e-99
9.62122e-99
7.2871e-98
5.52805e-97
4.19922e-96
3.19381e-95
2.43172e-94
1.85308e-93
1.41305e-92
1.07793e-91
8.22187e-91
6.27042e-90
4.78009e-89
3.64121e-88
2.77052e-87
2.10021e-86
1.57138e-85
1.18538e-84
8.91419e-84
6.66528e-83
4.95144e-82
3.21818e-81
2.43738e-80
1.75798e-79
1.24946e-78
8.68809e-78
5.67525e-77
3.64504e-76
2.25212e-75
1.28705e-74
6.1624e-74
1.14685e-73
3.83305e-74
2.41585e-152
3.31167e-150
2.54286e-149
1.10611e-148
4.30034e-148
1.64031e-147
6.2212e-147
2.38277e-146
9.5274e-146
3.84753e-145
1.59199e-144
6.74819e-144
2.92864e-143
1.30037e-142
5.90271e-142
2.73687e-141
1.29463e-140
6.07012e-140
2.93058e-139
1.47549e-138
7.50571e-138
3.88216e-137
2.04099e-136
1.08955e-135
5.90399e-135
3.24502e-134
1.80808e-133
1.02062e-132
5.83392e-132
3.37552e-131
1.97587e-130
1.16965e-129
6.99943e-129
4.23269e-128
2.58564e-127
1.59505e-126
9.93366e-126
6.24355e-125
3.95944e-124
2.53274e-123
1.63382e-122
1.06257e-121
6.95956e-121
4.56693e-120
3.04549e-119
2.04229e-118
1.37942e-117
9.38296e-117
6.42661e-116
4.43157e-115
3.0762e-114
2.14929e-113
1.51128e-112
1.06934e-111
7.61312e-111
5.45315e-110
3.92943e-109
2.84824e-108
2.07663e-107
1.52283e-106
1.12315e-105
8.32964e-105
6.20062e-104
4.62837e-103
3.46473e-102
2.60077e-101
1.95745e-100
1.47698e-99
1.1171e-98
8.46705e-98
6.43096e-97
4.89378e-96
3.7299e-95
2.84721e-94
2.17589e-93
1.66471e-92
1.27434e-91
9.75779e-91
7.47469e-90
5.72682e-89
4.38718e-88
3.35776e-87
2.56218e-86
1.92287e-85
1.46554e-84
1.11007e-83
8.3705e-83
6.27462e-82
4.23838e-81
3.15033e-80
2.29848e-79
1.65333e-78
1.1641e-77
7.66826e-77
4.96548e-76
3.10387e-75
1.78357e-74
8.63618e-74
1.6245e-73
5.4921e-74
2.07302e-151
3.02673e-149
2.25425e-148
9.1062e-148
3.40298e-147
1.2426e-146
4.4926e-146
1.63847e-145
6.21162e-145
2.3726e-144
9.27499e-144
3.7119e-143
1.52046e-142
6.37204e-142
2.73075e-141
1.19554e-140
5.34102e-140
2.41906e-139
1.08762e-138
5.18676e-138
2.50157e-137
1.22822e-136
6.13814e-136
3.11899e-135
1.611e-134
8.45209e-134
4.50089e-133
2.43205e-132
1.33249e-131
7.40035e-131
4.16392e-130
2.37265e-129
1.36857e-128
7.98751e-128
4.7157e-127
2.81506e-126
1.69868e-125
1.03584e-124
6.38114e-124
3.97017e-123
2.49407e-122
1.58156e-121
1.01109e-120
6.47892e-120
4.22918e-119
2.77855e-118
1.84078e-117
1.22955e-116
8.27908e-116
5.61875e-115
3.8428e-114
2.6482e-113
1.83857e-112
1.28583e-111
9.05744e-111
6.42541e-110
4.59012e-109
3.30168e-108
2.3911e-107
1.7433e-106
1.27948e-105
9.45107e-105
7.01353e-104
5.22115e-103
3.89984e-102
2.92242e-101
2.19653e-100
1.65561e-99
1.25134e-98
9.48235e-98
7.20266e-97
5.48205e-96
4.18079e-95
3.19336e-94
2.4431e-93
1.87178e-92
1.43581e-91
1.10244e-90
8.46598e-90
6.50016e-89
4.99173e-88
3.83245e-87
2.93722e-86
2.20924e-85
1.69009e-84
1.28748e-83
9.76195e-83
7.3627e-82
5.29993e-81
3.75197e-80
2.75506e-79
1.99789e-78
1.41865e-77
9.39553e-77
6.1142e-76
3.85142e-75
2.2328e-74
1.08791e-73
2.05973e-73
6.97381e-74
1.23643e-150
1.72165e-148
1.25225e-147
5.12811e-147
1.86476e-146
6.59625e-146
2.30247e-145
8.09636e-145
2.94784e-144
1.07871e-143
4.03388e-143
1.54242e-142
6.03068e-142
2.41076e-141
9.85012e-141
4.10801e-140
1.74463e-139
7.68216e-139
3.40462e-138
1.54503e-137
7.14386e-137
3.36482e-136
1.61353e-135
7.87295e-135
3.90681e-134
1.9711e-133
1.01025e-132
5.259e-132
2.77845e-131
1.48948e-130
8.09692e-130
4.46226e-129
2.49193e-128
1.40953e-127
8.07345e-127
4.6806e-126
2.74587e-125
1.62952e-124
9.77973e-124
5.93396e-123
3.63925e-122
2.2553e-121
1.4103e-120
8.84271e-120
5.66002e-119
3.64905e-118
2.37466e-117
1.55963e-116
1.03361e-115
6.91098e-115
4.66117e-114
3.1707e-113
2.17493e-112
1.50419e-111
1.04875e-110
7.37047e-110
5.22054e-109
3.72635e-108
2.68019e-107
1.94232e-106
1.41811e-105
1.04295e-104
7.71297e-104
5.72386e-103
4.26406e-102
3.18824e-101
2.39189e-100
1.80015e-99
1.35905e-98
1.02906e-97
7.81289e-97
5.94517e-96
4.53296e-95
3.46225e-94
2.64941e-93
2.03075e-92
1.55866e-91
1.19699e-90
9.20096e-90
7.07797e-89
5.44827e-88
4.19559e-87
3.22382e-86
2.42474e-85
1.86465e-84
1.42569e-83
1.08547e-82
8.22304e-82
5.75804e-81
4.22715e-80
3.12392e-79
2.27845e-78
1.62748e-77
1.08179e-76
7.06161e-76
4.47142e-75
2.6041e-74
1.27433e-73
2.42367e-73
8.24588e-74
5.72329e-150
7.84984e-148
5.62349e-147
2.2895e-146
8.16827e-146
2.8264e-145
9.62611e-145
3.29894e-144
1.16687e-143
4.13984e-143
1.49889e-142
5.54272e-142
2.09384e-141
8.08098e-141
3.18587e-140
1.28256e-139
5.27284e-139
2.18562e-138
9.45214e-138
4.13043e-137
1.83982e-136
8.3546e-136
3.86489e-135
1.81985e-134
8.72201e-134
4.25191e-133
2.10738e-132
1.06143e-131
5.43046e-131
2.82045e-130
1.48683e-129
7.95162e-129
4.31266e-128
2.37121e-127
1.32126e-126
7.45806e-126
4.26373e-125
2.46795e-124
1.44588e-123
8.57173e-123
5.14094e-122
3.11839e-121
1.91016e-120
1.17361e-119
7.37462e-119
4.67056e-118
2.98846e-117
1.9316e-116
1.26094e-115
8.31177e-115
5.53158e-114
3.71606e-113
2.51951e-112
1.72377e-111
1.18989e-110
8.28576e-110
5.81968e-109
4.12251e-108
2.9449e-107
2.12119e-106
1.54055e-105
1.12786e-104
8.31157e-104
6.14838e-103
4.56779e-102
3.40714e-101
2.55111e-100
1.91738e-99
1.44622e-98
1.09433e-97
8.30733e-97
6.32343e-96
4.82524e-95
3.69036e-94
2.82951e-93
2.1746e-92
1.67485e-91
1.29162e-90
9.97079e-90
7.70216e-89
5.95221e-88
4.59647e-87
3.47455e-86
2.63176e-85
2.02509e-84
1.55114e-83
1.18337e-82
8.98563e-82
6.34951e-81
4.64008e-80
3.44295e-79
2.51976e-78
1.80633e-77
1.20301e-76
7.86534e-76
4.99601e-75
2.9175e-74
1.43181e-73
2.72961e-73
9.31057e-74
2.19586e-149
2.97968e-147
2.08123e-146
8.28467e-146
2.91207e-145
9.90728e-145
3.31084e-144
1.11219e-143
3.84569e-143
1.33139e-142
4.69791e-142
1.69108e-141
6.21217e-141
2.32931e-140
8.91529e-140
3.48155e-139
1.38478e-138
5.62055e-138
2.33812e-137
9.90891e-137
4.28066e-136
1.88461e-135
8.45202e-135
3.86125e-134
1.79582e-133
8.49661e-133
4.08954e-132
2.00124e-131
9.95306e-131
5.02792e-130
2.57959e-129
1.34331e-128
7.09926e-128
3.80567e-127
2.06901e-126
1.14037e-125
6.36988e-125
3.60508e-124
2.0667e-123
1.19982e-122
7.05193e-122
4.19515e-121
2.52203e-120
1.52143e-119
9.40189e-119
5.85898e-118
3.6916e-117
2.35145e-116
1.51391e-115
9.84955e-115
6.47453e-114
4.29934e-113
2.88346e-112
1.95287e-111
1.33536e-110
9.21784e-110
6.42234e-109
4.51571e-108
3.20385e-107
2.29342e-106
1.65626e-105
1.20652e-104
8.8543e-104
6.52278e-103
4.82656e-102
3.58709e-101
2.67707e-100
2.0055e-99
1.50814e-98
1.13824e-97
8.62026e-97
6.54765e-96
4.98875e-95
3.81057e-94
2.91892e-93
2.24186e-92
1.72505e-91
1.32944e-90
1.02583e-89
7.92259e-89
6.12164e-88
4.72947e-87
3.64495e-86
2.74512e-85
2.11783e-84
1.62553e-83
1.24284e-82
9.45922e-82
6.50909e-81
4.92436e-80
3.65337e-79
2.68169e-78
1.92836e-77
1.28661e-76
8.42292e-76
5.36441e-75
3.13972e-74
1.54326e-73
2.95011e-73
1.00811e-73
6.76912e-149
9.10727e-147
6.4071e-146
2.5285e-145
8.79726e-145
2.95743e-144
9.75094e-144
3.22915e-143
1.0984e-142
3.73566e-142
1.29359e-141
4.56542e-141
1.64293e-140
6.03039e-140
2.25799e-139
8.62433e-139
3.34637e-138
1.30951e-137
5.33529e-137
2.18658e-136
9.18713e-136
3.93686e-135
1.71882e-134
7.64424e-134
3.46159e-133
1.59552e-132
7.48257e-132
3.56911e-131
1.73132e-130
8.53488e-130
4.27564e-129
2.17529e-128
1.12384e-127
5.89295e-127
3.13577e-126
1.6927e-125
9.26603e-125
5.14288e-124
2.89326e-123
1.64936e-122
9.52569e-122
5.56958e-121
3.28402e-120
1.95114e-119
1.18811e-118
7.29921e-118
4.5373e-117
2.85336e-116
1.81494e-115
1.16743e-114
7.59252e-114
4.99149e-113
3.31652e-112
2.22674e-111
1.51042e-110
1.03491e-109
7.16158e-109
5.00437e-108
3.53061e-107
2.51451e-106
1.80766e-105
1.31156e-104
9.59558e-104
7.04872e-103
5.20286e-102
3.85741e-101
2.87184e-100
2.14698e-99
1.61134e-98
1.2134e-97
9.16889e-97
6.95079e-96
5.28539e-95
4.03028e-94
3.07921e-93
2.35653e-92
1.80736e-91
1.38894e-90
1.06943e-89
8.2496e-89
6.37514e-88
4.92359e-87
3.71492e-86
2.86818e-85
2.20119e-84
1.69078e-83
1.29395e-82
9.85731e-82
6.81852e-81
5.13141e-80
3.8217e-79
2.80979e-78
2.02399e-77
1.35155e-76
8.85276e-76
5.64677e-75
3.30925e-74
1.6291e-73
3.11849e-73
1.0668e-73
1.73357e-148
2.31702e-146
1.62849e-145
6.37828e-145
2.1997e-144
7.31968e-144
2.38582e-143
7.80509e-143
2.61796e-142
8.76907e-142
2.9878e-141
1.0366e-140
3.66404e-140
1.31996e-139
4.84743e-139
1.81358e-138
6.87366e-138
2.64837e-137
1.05689e-136
4.27904e-136
1.75892e-135
7.37002e-135
3.1484e-134
1.37059e-133
6.075e-133
2.74211e-132
1.25973e-131
5.88642e-131
2.79793e-130
1.35184e-129
6.63805e-129
3.31217e-128
1.67869e-127
8.63966e-127
4.51358e-126
2.39307e-125
1.28731e-124
7.02458e-124
3.88729e-123
2.18105e-122
1.24042e-121
7.14179e-121
4.13682e-120
2.4256e-119
1.45707e-118
8.83458e-118
5.42307e-117
3.36979e-116
2.11919e-115
1.34852e-114
8.68102e-114
5.65227e-113
3.72164e-112
2.47745e-111
1.66706e-110
1.13369e-109
7.79043e-109
5.40847e-108
3.79282e-107
2.6865e-106
1.92166e-105
1.38805e-104
1.01199e-103
7.40911e-103
5.45113e-102
4.02935e-101
2.99157e-100
2.23095e-99
1.67075e-98
1.2562e-97
9.47678e-97
7.17095e-96
5.44098e-95
4.14054e-94
3.15713e-93
2.41133e-92
1.84557e-91
1.41381e-90
1.08487e-89
8.33699e-89
6.41517e-88
4.94185e-87
3.81087e-86
2.93681e-85
2.24228e-84
1.72572e-83
1.32186e-82
1.00795e-81
6.99489e-81
5.25985e-80
3.92151e-79
2.8871e-78
2.08272e-77
1.39179e-76
9.12129e-76
5.82541e-75
3.41765e-74
1.68423e-73
3.22796e-73
1.10494e-73
3.85312e-148
5.12571e-146
3.56128e-145
1.38681e-144
4.75144e-144
1.56903e-143
5.07031e-143
1.64356e-142
5.4546e-142
1.80607e-141
6.07836e-141
2.08158e-140
7.25773e-140
2.57741e-139
9.32523e-139
3.43697e-138
1.28383e-137
4.84375e-137
1.8965e-136
7.52063e-136
3.03895e-135
1.2516e-134
5.25251e-134
2.24518e-133
9.77276e-133
4.33186e-132
1.95444e-131
8.97261e-131
4.19041e-130
1.98966e-129
9.60311e-129
4.71078e-128
2.34788e-127
1.18863e-126
6.11002e-126
3.1885e-125
1.68877e-124
9.0761e-124
4.94853e-123
2.73659e-122
1.53459e-121
8.709e-121
4.96065e-120
2.90767e-119
1.72164e-118
1.03264e-117
6.27397e-117
3.86044e-116
2.40516e-115
1.51698e-114
9.68385e-114
6.25548e-113
4.08814e-112
2.70233e-111
1.80641e-110
1.22087e-109
8.34093e-109
5.75931e-108
4.01844e-107
2.83265e-106
2.01726e-105
1.45121e-104
1.05406e-103
7.6935e-103
5.6438e-102
4.15971e-101
3.07946e-100
2.28985e-99
1.70979e-98
1.28166e-97
9.64268e-97
7.28011e-96
5.51454e-95
4.19006e-94
3.19264e-93
2.4393e-92
1.86708e-91
1.43264e-90
1.10081e-89
8.47429e-89
6.52647e-88
5.02686e-87
3.87028e-86
2.98e-85
2.27935e-84
1.75388e-83
1.3437e-82
1.02497e-81
7.12735e-81
5.35737e-80
3.99423e-79
2.94303e-78
2.12491e-77
1.4205e-76
9.3104e-76
5.95082e-75
3.49347e-74
1.72269e-73
3.30371e-73
1.1318e-73
7.42279e-148
9.83518e-146
6.80525e-145
2.63796e-144
8.99014e-144
2.95038e-143
9.46767e-143
3.0461e-142
1.00222e-141
3.28717e-141
1.09517e-140
3.71038e-140
1.27907e-139
4.48855e-139
1.60389e-138
5.83595e-138
2.14811e-137
7.99179e-137
3.10429e-136
1.21177e-135
4.8301e-135
1.96246e-134
8.12474e-134
3.4247e-133
1.47038e-132
6.42429e-132
2.85733e-131
1.29266e-130
5.94976e-130
2.78493e-129
1.32505e-128
6.40874e-128
3.14976e-127
1.57271e-126
7.97598e-126
4.10716e-125
2.14729e-124
1.13949e-123
6.13645e-123
3.35293e-122
1.85838e-121
1.04267e-120
5.87367e-120
3.40736e-119
1.9962e-118
1.18523e-117
7.13148e-117
4.34757e-116
2.68485e-115
1.67924e-114
1.0635e-113
6.81851e-113
4.42468e-112
2.90555e-111
1.93036e-110
1.29722e-109
8.81568e-109
6.05729e-108
4.2074e-107
2.95411e-106
2.09639e-105
1.50342e-104
1.08917e-103
7.9346e-103
5.8098e-102
4.27566e-101
3.16174e-100
2.34935e-99
1.75367e-98
1.31409e-97
9.88232e-97
7.46024e-96
5.64864e-95
4.29151e-94
3.26808e-93
2.49348e-92
1.90547e-91
1.45952e-90
1.12011e-89
8.59888e-89
6.60084e-88
5.0734e-87
3.90403e-86
3.00549e-85
2.30287e-84
1.77128e-83
1.35729e-82
1.03556e-81
7.21009e-81
5.41115e-80
4.04027e-79
2.97853e-78
2.15189e-77
1.43885e-76
9.43125e-76
6.03141e-75
3.5424e-74
1.74761e-73
3.35348e-73
1.14935e-73
1.27207e-147
1.68075e-145
1.15965e-144
4.48079e-144
1.52133e-143
4.97075e-143
1.58718e-142
5.07945e-142
1.66091e-141
5.41085e-141
1.78973e-140
6.01728e-140
2.05766e-139
7.1601e-139
2.53599e-138
9.14268e-138
3.34707e-137
1.2298e-136
4.70619e-136
1.8201e-135
7.1615e-135
2.87171e-134
1.17275e-133
4.87741e-133
2.06725e-132
8.92362e-132
3.92101e-131
1.75262e-130
7.97103e-130
3.6862e-129
1.73321e-128
8.28375e-128
4.02415e-127
1.98644e-126
9.96057e-126
5.07272e-125
2.62357e-124
1.37753e-123
7.34198e-123
3.97141e-122
2.17973e-121
1.21136e-120
6.76008e-120
3.88756e-119
2.25821e-118
1.32989e-117
7.93937e-117
4.80401e-116
2.94564e-115
1.82985e-114
1.15143e-113
7.33746e-113
4.73418e-112
3.09201e-111
2.04379e-110
1.3669e-109
9.24812e-109
6.32836e-108
4.37878e-107
3.06311e-106
2.16604e-105
1.54838e-104
1.11839e-103
8.12719e-103
5.93561e-102
4.35845e-101
3.21682e-100
2.38588e-99
1.77788e-98
1.3307e-97
9.99667e-97
7.53505e-96
5.69648e-95
4.31795e-94
3.28326e-93
2.50347e-92
1.91214e-91
1.46423e-90
1.12382e-89
8.6328e-89
6.64395e-88
5.11472e-87
3.94326e-86
3.03549e-85
2.31899e-84
1.78433e-83
1.36699e-82
1.04295e-81
7.26642e-81
5.45422e-80
4.07038e-79
3.00154e-78
2.16922e-77
1.45049e-76
9.50666e-76
6.08149e-75
3.57265e-74
1.76296e-73
3.38402e-73
1.16008e-73
1.94086e-147
2.55696e-145
1.75833e-144
6.76835e-144
2.28809e-143
7.43922e-143
2.36238e-142
7.51628e-142
2.44137e-141
7.89577e-141
2.59141e-140
8.64073e-140
2.92893e-139
1.00978e-138
3.542e-138
1.26268e-137
4.56281e-137
1.69094e-136
6.40015e-136
2.46054e-135
9.6392e-135
3.84239e-134
1.56067e-133
6.4585e-133
2.71736e-132
1.16351e-131
5.06664e-131
2.24389e-130
1.01099e-129
4.63419e-129
2.15894e-128
1.02245e-127
4.92235e-127
2.40823e-126
1.19699e-125
6.04342e-125
3.09854e-124
1.61312e-123
8.52584e-123
4.57422e-122
2.49055e-121
1.37327e-120
7.60423e-120
4.34141e-119
2.50398e-118
1.46457e-117
8.68603e-117
5.22274e-116
3.18311e-115
1.96606e-114
1.23039e-113
7.8e-113
5.00791e-112
3.2556e-111
2.14249e-110
1.42701e-109
9.61713e-109
6.55649e-108
4.52091e-107
3.15258e-106
2.22306e-105
1.58506e-104
1.14207e-103
8.28372e-103
6.03881e-102
4.42672e-101
3.26204e-100
2.41497e-99
1.79631e-98
1.34143e-97
1.0054e-96
7.56486e-96
5.71372e-95
4.3314e-94
3.29484e-93
2.51225e-92
1.91915e-91
1.46845e-90
1.12632e-89
8.64755e-89
6.65278e-88
5.11923e-87
3.9434e-86
3.02e-85
2.32165e-84
1.78427e-83
1.36713e-82
1.04312e-81
7.26875e-81
5.45705e-80
4.07326e-79
3.00453e-78
2.1721e-77
1.45255e-76
9.52011e-76
6.09187e-75
3.57959e-74
1.76679e-73
3.39232e-73
1.16314e-73
2.80626e-147
3.69257e-145
2.53646e-144
9.75152e-144
3.29159e-143
1.06822e-142
3.38498e-142
1.07451e-141
3.48053e-141
1.12224e-140
3.67127e-140
1.21992e-139
4.12014e-139
1.41508e-138
4.94438e-138
1.75781e-137
6.33001e-137
2.29278e-136
8.64575e-136
3.28824e-135
1.2722e-134
5.01757e-134
2.01574e-133
8.24612e-133
3.4331e-132
1.45495e-131
6.2791e-131
2.75818e-130
1.2327e-129
5.59965e-129
2.58847e-128
1.21657e-127
5.80969e-127
2.82024e-126
1.39098e-125
6.97041e-125
3.5475e-124
1.83353e-123
9.62468e-123
5.1294e-122
2.77489e-121
1.52047e-120
8.36752e-120
4.74994e-119
2.72437e-118
1.58497e-117
9.35239e-117
5.59619e-116
3.39499e-115
2.08782e-114
1.30124e-113
8.21754e-113
5.25693e-112
3.40591e-111
2.23426e-110
1.48369e-109
9.97178e-109
6.78167e-108
4.66593e-107
3.24702e-106
2.28539e-105
1.62673e-104
1.1704e-103
8.48075e-103
6.17787e-102
4.52586e-101
3.33237e-100
2.46532e-99
1.8326e-98
1.36764e-97
1.02433e-96
7.69739e-96
5.80516e-95
4.39298e-94
3.33491e-93
2.53904e-92
1.93823e-91
1.48131e-90
1.13313e-89
8.68534e-89
6.6703e-88
5.13243e-87
3.95339e-86
3.02727e-85
2.32494e-84
1.78725e-83
1.36925e-82
1.04477e-81
7.28168e-81
5.46738e-80
4.08081e-79
3.01075e-78
2.17709e-77
1.45597e-76
9.54224e-76
6.1073e-75
3.58924e-74
1.77183e-73
3.40265e-73
1.16677e-73
3.71213e-147
4.87392e-145
3.34114e-144
1.28159e-143
4.31496e-143
1.39634e-142
4.41094e-142
1.3956e-141
4.50391e-141
1.44646e-140
4.71211e-140
1.55891e-139
5.24088e-139
1.79135e-138
6.22763e-138
2.20279e-137
7.88615e-137
2.84062e-136
1.06618e-135
4.026e-135
1.54871e-134
6.07322e-134
2.42361e-133
9.85414e-133
4.08209e-132
1.72069e-131
7.38333e-131
3.22327e-130
1.43189e-129
6.46788e-129
2.97141e-128
1.38821e-127
6.59215e-127
3.1808e-126
1.55962e-125
7.77013e-125
3.93355e-124
2.0228e-123
1.05624e-122
5.60029e-122
3.01461e-121
1.6438e-120
9.00306e-120
5.08798e-119
2.90552e-118
1.68327e-117
9.89227e-117
5.89624e-116
3.56374e-115
2.1838e-114
1.35643e-113
8.53813e-113
5.44497e-112
3.51734e-111
2.3009e-110
1.52391e-109
1.02165e-108
6.93173e-108
4.75843e-107
3.30447e-106
2.32103e-105
1.64873e-104
1.18414e-103
8.56821e-103
6.23173e-102
4.55846e-101
3.35158e-100
2.47713e-99
1.84e-98
1.3732e-97
1.02886e-96
7.73647e-96
5.83633e-95
4.416e-94
3.3532e-93
2.55495e-92
1.95298e-91
1.49551e-90
1.14678e-89
8.80196e-89
6.76052e-88
5.20355e-87
4.0102e-86
3.07173e-85
2.35272e-84
1.80962e-83
1.38673e-82
1.05827e-81
7.38585e-81
5.53658e-80
4.13667e-79
3.05288e-78
2.20832e-77
1.47715e-76
9.68252e-76
6.19905e-75
3.64416e-74
1.79941e-73
3.45659e-73
1.18548e-73
4.6725e-147
6.12906e-145
4.19143e-144
1.60324e-143
5.38082e-143
1.73507e-142
5.45956e-142
1.72012e-141
5.52502e-141
1.76524e-140
5.71858e-140
1.88054e-139
6.28147e-139
2.13229e-138
7.35876e-138
2.58136e-137
9.20424e-137
3.35021e-136
1.24272e-135
4.69013e-135
1.80062e-134
7.04521e-134
2.80726e-133
1.13888e-132
4.70506e-132
1.97735e-131
8.44688e-131
3.66905e-130
1.62217e-129
7.30015e-129
3.33919e-128
1.55326e-127
7.35016e-127
3.53563e-126
1.72974e-125
8.59473e-125
4.33685e-124
2.22336e-123
1.1589e-122
6.13669e-122
3.29837e-121
1.7956e-120
9.81723e-120
5.53872e-119
3.15734e-118
1.82592e-117
1.07116e-116
6.37339e-116
3.84542e-115
2.35226e-114
1.45858e-113
9.16569e-113
5.83594e-112
3.764e-111
2.45856e-110
1.62592e-109
1.08843e-108
7.37401e-108
5.05487e-107
3.50554e-106
2.45888e-105
1.74436e-104
1.25103e-103
9.03997e-103
6.56685e-102
4.79743e-101
3.52374e-100
2.60065e-99
1.92909e-98
1.43749e-97
1.07595e-96
8.0835e-96
6.09201e-95
4.60723e-94
3.4925e-93
2.65338e-92
2.02255e-91
1.54563e-90
1.18383e-89
9.07399e-89
6.97022e-88
5.3616e-87
4.13181e-86
3.16473e-85
2.4252e-84
1.86697e-83
1.43149e-82
1.09309e-81
7.65495e-81
5.73205e-80
4.27982e-79
3.16016e-78
2.28702e-77
1.53032e-76
1.00337e-75
6.42619e-75
3.77881e-74
1.86638e-73
3.58612e-73
1.23008e-73
6.00561e-147
7.89719e-145
5.42267e-144
2.08374e-143
7.02721e-143
2.27726e-142
7.20247e-142
2.28133e-141
7.36828e-141
2.36789e-140
7.7178e-140
2.55428e-139
8.58956e-139
2.93652e-138
1.02096e-137
3.61031e-137
1.29181e-136
4.64973e-136
1.74454e-135
6.58441e-135
2.51788e-134
9.68793e-134
3.87132e-133
1.53865e-132
6.38202e-132
2.66954e-131
1.13695e-130
4.91177e-130
2.13137e-129
9.63109e-129
4.37697e-128
1.99677e-127
9.44024e-127
4.44851e-126
2.17666e-125
1.07569e-124
5.3877e-124
2.7021e-123
1.38675e-122
7.3257e-122
3.91005e-121
2.11489e-120
1.1495e-119
6.45062e-119
3.65917e-118
2.10664e-117
1.23076e-116
7.2956e-116
4.38695e-115
2.6753e-114
1.65432e-113
1.03699e-112
6.588e-112
4.24068e-111
2.76512e-110
1.82597e-109
1.22088e-108
8.26309e-108
5.66028e-107
3.92312e-106
2.75045e-105
1.94855e-104
1.39824e-103
1.01099e-102
7.34807e-102
5.37243e-101
3.94853e-100
2.90579e-99
2.16091e-98
1.61225e-97
1.19982e-96
9.04573e-96
6.83719e-95
5.18476e-94
3.94239e-93
2.9679e-92
2.27891e-91
1.75084e-90
1.34779e-89
1.0376e-88
7.8231e-88
5.9135e-87
4.5698e-86
3.44161e-85
2.62675e-84
2.01911e-83
1.5444e-82
1.17666e-81
8.05489e-81
6.13963e-80
4.57934e-79
3.37537e-78
2.43878e-77
1.6292e-76
1.06655e-75
6.82121e-75
4.00568e-74
1.97591e-73
3.79227e-73
1.29955e-73
6.05061e-147
7.95448e-145
5.46181e-144
2.09868e-143
7.07708e-143
2.29318e-142
7.25184e-142
2.29657e-141
7.41597e-141
2.38262e-140
7.76354e-140
2.56855e-139
8.63419e-139
2.95047e-138
1.0253e-137
3.62367e-137
1.29554e-136
4.66262e-136
1.75064e-135
6.61131e-135
2.53134e-134
9.74256e-134
3.89394e-133
1.54854e-132
6.42508e-132
2.68814e-131
1.14511e-130
4.94634e-130
2.14632e-129
9.69726e-129
4.40696e-128
2.01046e-127
9.5043e-127
4.47844e-126
2.19113e-125
1.08269e-124
5.42235e-124
2.71925e-123
1.3954e-122
7.37055e-122
3.93363e-121
2.12748e-120
1.15625e-119
6.48813e-119
3.68023e-118
2.11862e-117
1.23768e-116
7.33623e-116
4.41112e-115
2.68988e-114
1.66322e-113
1.04254e-112
6.6229e-112
4.26298e-111
2.77956e-110
1.83547e-109
1.2272e-108
8.30586e-108
5.68952e-107
3.94362e-106
2.76588e-105
1.96272e-104
1.40853e-103
1.01893e-102
7.41242e-102
5.42299e-101
3.97415e-100
2.92629e-99
2.17437e-98
1.61017e-97
1.19805e-96
9.02431e-96
6.81475e-95
5.15662e-94
3.86716e-93
2.95058e-92
2.25394e-91
1.72506e-90
1.32139e-89
9.92426e-89
7.64302e-88
5.88209e-87
4.52868e-86
3.39432e-85
2.60012e-84
1.99892e-83
1.52981e-82
1.1661e-81
7.97881e-81
6.09054e-80
4.54394e-79
3.35048e-78
2.42161e-77
1.61823e-76
1.05967e-75
6.77904e-75
3.98191e-74
1.96465e-73
3.77143e-73
1.29262e-73
4.83535e-147
6.34667e-145
4.34595e-144
1.66484e-143
5.59636e-143
1.80751e-142
5.69703e-142
1.79802e-141
5.78557e-141
1.85194e-140
6.01112e-140
1.98074e-139
6.63008e-139
2.25557e-138
7.80209e-138
2.74444e-137
9.76081e-137
3.49489e-136
1.30507e-135
4.89952e-135
1.87389e-134
7.3024e-134
2.9005e-133
1.17347e-132
4.83757e-132
2.02828e-131
8.6522e-131
3.7551e-130
1.65847e-129
7.45803e-129
3.40909e-128
1.58523e-127
7.49682e-127
3.60447e-126
1.76243e-125
8.7527e-125
4.41485e-124
2.26255e-123
1.17897e-122
6.24138e-122
3.35383e-121
1.82541e-120
9.97837e-120
5.62874e-119
3.20822e-118
1.85511e-117
1.08817e-116
6.47401e-116
3.90589e-115
2.38912e-114
1.48136e-113
9.30813e-113
5.92611e-112
3.82185e-111
2.49616e-110
1.65061e-109
1.10483e-108
7.48403e-108
5.12942e-107
3.55626e-106
2.49392e-105
1.7686e-104
1.26785e-103
9.15899e-103
6.65064e-102
4.85635e-101
3.56506e-100
2.62973e-99
1.94842e-98
1.45012e-97
1.0841e-96
8.13274e-96
6.12272e-95
4.6241e-94
3.50044e-93
2.65857e-92
2.02446e-91
1.5453e-90
1.1822e-89
9.065e-89
6.95978e-88
5.35416e-87
4.12344e-86
3.15675e-85
2.41841e-84
1.86112e-83
1.42659e-82
1.08903e-81
7.62182e-81
5.70544e-80
4.26062e-79
3.14523e-78
2.27573e-77
1.52245e-76
9.98024e-76
6.3908e-75
3.75736e-74
1.8555e-73
3.56469e-73
1.22258e-73
3.74171e-147
4.91447e-145
3.36984e-144
1.29306e-143
4.35512e-143
1.40982e-142
4.455e-142
1.40999e-141
4.55172e-141
1.46224e-140
4.76489e-140
1.5768e-139
5.30242e-139
1.81285e-138
6.3039e-138
2.23037e-137
7.98664e-137
2.87447e-136
1.07812e-135
4.07196e-135
1.56599e-134
6.13549e-134
2.44981e-133
9.96312e-133
4.12413e-132
1.73839e-131
7.46005e-131
3.25584e-130
1.44609e-129
6.53279e-129
3.00173e-128
1.40211e-127
6.65799e-127
3.21346e-126
1.57585e-125
7.85198e-125
3.9747e-124
2.04364e-123
1.06714e-122
5.65803e-122
3.04552e-121
1.66056e-120
9.09428e-120
5.13911e-119
2.93446e-118
1.69985e-117
9.98861e-117
5.95295e-116
3.59758e-115
2.2042e-114
1.36888e-113
8.61479e-113
5.49291e-112
3.54758e-111
2.32025e-110
1.53637e-109
1.02971e-108
6.98413e-108
4.79282e-107
3.32693e-106
2.33562e-105
1.65813e-104
1.19015e-103
8.60759e-103
6.25666e-102
4.5736e-101
3.36016e-100
2.48133e-99
1.84126e-98
1.37268e-97
1.0278e-96
7.72297e-96
5.82186e-95
4.40456e-94
3.34081e-93
2.54235e-92
1.94094e-91
1.48612e-90
1.13941e-89
8.74339e-89
6.71361e-88
5.16607e-87
3.98017e-86
3.04783e-85
2.33371e-84
1.79447e-83
1.37471e-82
1.04878e-81
7.31128e-81
5.48387e-80
4.09569e-79
3.02164e-78
2.185e-77
1.46108e-76
9.57407e-76
6.12757e-75
3.60094e-74
1.77748e-73
3.41332e-73
1.17026e-73
2.75959e-147
3.62621e-145
2.48781e-144
9.5523e-144
3.21995e-143
1.04344e-142
3.30128e-142
1.0462e-141
3.38276e-141
1.08862e-140
3.55395e-140
1.17835e-139
3.97043e-139
1.36026e-138
4.73975e-138
1.68004e-137