/*--------------------------------*- C++ -*----------------------------------*\
| =========                 |                                                 |
| \\      /  F ield         | OpenFOAM: The Open Source CFD Toolbox           |
|  \\    /   O peration     | Version:  2406                                  |
|   \\  /    A nd           | Website:  www.openfoam.com                      |
|    \\/     M anipulation  |                                                 |
\*---------------------------------------------------------------------------*/
FoamFile
{
    version     2.0;
    format      ascii;
    arch        "LSB;label=32;scalar=64";
    class       volVectorField;
    location    "6.4416e-05";
    object      U;
}
// * * * * * * * * * * * * * * * * * * * * * * * * * * * * * * * * * * * * * //

dimensions      [0 1 -1 0 0 0 0];

internalField   nonuniform List<vector> 
4000
(
(-0.180054 1.36876 0)
(-0.411173 1.65964 0)
(-0.350257 1.60542 0)
(-0.174262 1.46188 0)
(-0.0400139 1.32134 0)
(0.026104 1.20236 0)
(0.0530594 1.10971 0)
(0.0592718 1.03532 0)
(0.0572353 0.973087 0)
(0.0526643 0.919649 0)
(0.0478145 0.872968 0)
(0.0434233 0.831698 0)
(0.0396377 0.794886 0)
(0.0364086 0.761821 0)
(0.0336381 0.731953 0)
(0.0312394 0.704849 0)
(0.029143 0.680154 0)
(0.0272874 0.657582 0)
(0.0256285 0.63688 0)
(0.0241337 0.61784 0)
(0.0227751 0.600282 0)
(0.0215331 0.58406 0)
(0.0203921 0.569046 0)
(0.0193374 0.555131 0)
(0.018357 0.542217 0)
(0.0174406 0.530218 0)
(0.0165798 0.519058 0)
(0.0157673 0.508668 0)
(0.0149971 0.498986 0)
(0.0142641 0.489954 0)
(0.0135656 0.481521 0)
(0.0128998 0.473645 0)
(0.0122636 0.466293 0)
(0.0116534 0.459434 0)
(0.0110661 0.453039 0)
(0.010499 0.447079 0)
(0.00995033 0.441525 0)
(0.00941891 0.436354 0)
(0.00890341 0.431544 0)
(0.00840246 0.427075 0)
(0.00791462 0.42293 0)
(0.00743846 0.419093 0)
(0.00697257 0.415547 0)
(0.00651585 0.412278 0)
(0.00606788 0.409274 0)
(0.00562813 0.406527 0)
(0.00519556 0.404029 0)
(0.004769 0.401776 0)
(0.0043474 0.399761 0)
(0.00392973 0.397979 0)
(0.00351476 0.396428 0)
(0.00310095 0.395105 0)
(0.00268758 0.394008 0)
(0.00227572 0.393139 0)
(0.00186725 0.392501 0)
(0.00146313 0.392095 0)
(0.00106293 0.391926 0)
(0.000666899 0.392005 0)
(0.000271945 0.392341 0)
(-0.000129189 0.392936 0)
(-0.000538393 0.393783 0)
(-0.00095399 0.394881 0)
(-0.00137627 0.396229 0)
(-0.00180562 0.397827 0)
(-0.0022423 0.399677 0)
(-0.00268696 0.401783 0)
(-0.00314062 0.404152 0)
(-0.00360452 0.406792 0)
(-0.00408024 0.409714 0)
(-0.00457 0.412929 0)
(-0.00507564 0.416451 0)
(-0.00560176 0.420302 0)
(-0.00614754 0.424502 0)
(-0.00671231 0.429068 0)
(-0.00730237 0.434025 0)
(-0.00792228 0.4394 0)
(-0.00857728 0.445225 0)
(-0.00927377 0.451533 0)
(-0.0100184 0.458357 0)
(-0.0108116 0.465735 0)
(-0.0116262 0.473743 0)
(-0.0125129 0.482681 0)
(-0.013526 0.492404 0)
(-0.0146476 0.502997 0)
(-0.0158949 0.514594 0)
(-0.0173002 0.527346 0)
(-0.0189074 0.541435 0)
(-0.0207755 0.557085 0)
(-0.02298 0.57457 0)
(-0.0256033 0.594251 0)
(-0.0286842 0.616616 0)
(-0.0320532 0.642364 0)
(-0.0348244 0.672523 0)
(-0.0341638 0.708689 0)
(-0.0228365 0.753525 0)
(0.0120775 0.811591 0)
(0.0950642 0.884875 0)
(0.22879 0.967486 0)
(0.277164 1.00517 0)
(0.0897555 0.787075 0)
(-0.193736 2.16163 0)
(-0.403132 2.53653 0)
(-0.535575 2.52529 0)
(-0.532405 2.42509 0)
(-0.472356 2.30334 0)
(-0.407905 2.18207 0)
(-0.351424 2.06723 0)
(-0.304689 1.96143 0)
(-0.266836 1.86533 0)
(-0.235964 1.77831 0)
(-0.210562 1.69942 0)
(-0.189403 1.62767 0)
(-0.171544 1.56217 0)
(-0.156275 1.50213 0)
(-0.143065 1.44691 0)
(-0.131513 1.39593 0)
(-0.121316 1.34873 0)
(-0.112271 1.3049 0)
(-0.104204 1.26411 0)
(-0.0969645 1.22607 0)
(-0.090425 1.19053 0)
(-0.0844698 1.15727 0)
(-0.0790215 1.12611 0)
(-0.0740189 1.09685 0)
(-0.0694104 1.06937 0)
(-0.065152 1.04353 0)
(-0.0612062 1.01921 0)
(-0.0575418 0.996319 0)
(-0.0541348 0.974757 0)
(-0.0509664 0.954449 0)
(-0.0480007 0.935329 0)
(-0.0451934 0.917327 0)
(-0.0425238 0.900378 0)
(-0.0399866 0.884425 0)
(-0.0375766 0.86942 0)
(-0.0352906 0.855317 0)
(-0.0331191 0.842061 0)
(-0.0310476 0.829616 0)
(-0.0290659 0.817951 0)
(-0.0271663 0.807039 0)
(-0.0253422 0.796851 0)
(-0.0235876 0.787363 0)
(-0.0218967 0.778551 0)
(-0.0202612 0.770383 0)
(-0.0186707 0.762835 0)
(-0.0171155 0.755902 0)
(-0.0155896 0.749581 0)
(-0.0140892 0.743865 0)
(-0.0126104 0.738747 0)
(-0.0111486 0.73422 0)
(-0.00969908 0.730278 0)
(-0.00825633 0.726921 0)
(-0.00681447 0.724146 0)
(-0.00536679 0.721956 0)
(-0.00390534 0.720353 0)
(-0.00242074 0.719341 0)
(-0.000901034 0.718929 0)
(0.000663429 0.719126 0)
(0.00225422 0.72007 0)
(0.00383473 0.721765 0)
(0.0053989 0.724088 0)
(0.00696144 0.727052 0)
(0.00852738 0.730664 0)
(0.0101008 0.734914 0)
(0.0116908 0.739804 0)
(0.0133072 0.745344 0)
(0.0149592 0.751547 0)
(0.0166558 0.758428 0)
(0.0184065 0.766006 0)
(0.0202212 0.774303 0)
(0.0221105 0.783346 0)
(0.0240864 0.793165 0)
(0.0261623 0.803796 0)
(0.0283523 0.815276 0)
(0.0306708 0.827653 0)
(0.0331319 0.840979 0)
(0.0357485 0.855314 0)
(0.0385309 0.870733 0)
(0.041494 0.887319 0)
(0.0447261 0.905174 0)
(0.0488308 0.924383 0)
(0.0533128 0.944837 0)
(0.0576951 0.966903 0)
(0.0626174 0.990775 0)
(0.0682328 1.01661 0)
(0.0746694 1.04464 0)
(0.0820985 1.0751 0)
(0.0907572 1.10834 0)
(0.100977 1.14473 0)
(0.11325 1.18473 0)
(0.1283 1.2289 0)
(0.147097 1.27782 0)
(0.170852 1.33209 0)
(0.20097 1.39208 0)
(0.238653 1.45727 0)
(0.283623 1.52495 0)
(0.327832 1.58786 0)
(0.332009 1.62216 0)
(0.221254 1.56128 0)
(0.0622936 1.23227 0)
(-0.245132 1.50336 0)
(-0.459041 1.75572 0)
(-0.645947 1.75075 0)
(-0.675191 1.6968 0)
(-0.631752 1.63236 0)
(-0.575418 1.56624 0)
(-0.5207 1.50122 0)
(-0.470019 1.4385 0)
(-0.424231 1.3788 0)
(-0.383943 1.32246 0)
(-0.348688 1.2696 0)
(-0.317809 1.22017 0)
(-0.290681 1.17405 0)
(-0.266751 1.13107 0)
(-0.245551 1.09102 0)
(-0.226684 1.05369 0)
(-0.209825 1.01886 0)
(-0.194663 0.98636 0)
(-0.180952 0.956002 0)
(-0.168499 0.927626 0)
(-0.157148 0.901083 0)
(-0.146784 0.876234 0)
(-0.137284 0.852952 0)
(-0.128542 0.831121 0)
(-0.120471 0.81064 0)
(-0.112993 0.791414 0)
(-0.10604 0.773359 0)
(-0.0995515 0.756402 0)
(-0.093471 0.740477 0)
(-0.0877489 0.725525 0)
(-0.0823619 0.711495 0)
(-0.0773018 0.698332 0)
(-0.0725402 0.685981 0)
(-0.0680372 0.674394 0)
(-0.0637624 0.663525 0)
(-0.0597389 0.653338 0)
(-0.0559445 0.64382 0)
(-0.0523117 0.634939 0)
(-0.0488248 0.626666 0)
(-0.0454741 0.618974 0)
(-0.0422497 0.611841 0)
(-0.0391409 0.605245 0)
(-0.0361373 0.599163 0)
(-0.0332256 0.593558 0)
(-0.03039 0.588404 0)
(-0.027617 0.583707 0)
(-0.0248967 0.579473 0)
(-0.0222207 0.5757 0)
(-0.0195809 0.57238 0)
(-0.0169686 0.569509 0)
(-0.0143748 0.567082 0)
(-0.0117901 0.565096 0)
(-0.00920479 0.563549 0)
(-0.0066088 0.562443 0)
(-0.00399105 0.561777 0)
(-0.00133917 0.561552 0)
(0.00136088 0.561772 0)
(0.00411214 0.562506 0)
(0.00689138 0.563978 0)
(0.00967222 0.566127 0)
(0.0124547 0.568742 0)
(0.0152537 0.571861 0)
(0.0180762 0.575501 0)
(0.0209272 0.57964 0)
(0.0238193 0.584271 0)
(0.0267674 0.589405 0)
(0.0297865 0.595051 0)
(0.0328922 0.601225 0)
(0.0361013 0.607943 0)
(0.0394316 0.615223 0)
(0.042903 0.623087 0)
(0.046537 0.631561 0)
(0.050358 0.640671 0)
(0.0543938 0.650449 0)
(0.0586765 0.660932 0)
(0.0632444 0.672159 0)
(0.0681451 0.684178 0)
(0.0734382 0.697043 0)
(0.0791908 0.710817 0)
(0.0854116 0.725572 0)
(0.0916083 0.741354 0)
(0.0984446 0.758012 0)
(0.106638 0.775854 0)
(0.115704 0.794973 0)
(0.125703 0.815476 0)
(0.136881 0.837458 0)
(0.149489 0.861021 0)
(0.16382 0.886267 0)
(0.180225 0.913288 0)
(0.199101 0.94215 0)
(0.220871 0.972851 0)
(0.246019 1.00527 0)
(0.275008 1.03911 0)
(0.308004 1.07378 0)
(0.344568 1.10819 0)
(0.382681 1.14029 0)
(0.412728 1.16542 0)
(0.392114 1.17018 0)
(0.245982 1.11134 0)
(0.0829076 0.856858 0)
(-0.256719 1.18672 0)
(-0.485645 1.39621 0)
(-0.686037 1.40847 0)
(-0.725678 1.38183 0)
(-0.689148 1.34468 0)
(-0.637972 1.30459 0)
(-0.587028 1.26419 0)
(-0.539397 1.22446 0)
(-0.495906 1.18559 0)
(-0.456471 1.14784 0)
(-0.420836 1.11142 0)
(-0.388654 1.07648 0)
(-0.359569 1.04309 0)
(-0.333249 1.01127 0)
(-0.309388 0.981041 0)
(-0.287716 0.952367 0)
(-0.267977 0.92521 0)
(-0.249951 0.899518 0)
(-0.233446 0.875221 0)
(-0.218298 0.852252 0)
(-0.204358 0.830542 0)
(-0.191494 0.810026 0)
(-0.179596 0.790642 0)
(-0.168563 0.772331 0)
(-0.158307 0.755036 0)
(-0.148747 0.738701 0)
(-0.139812 0.723275 0)
(-0.13144 0.708709 0)
(-0.123575 0.694957 0)
(-0.116169 0.681973 0)
(-0.109187 0.669715 0)
(-0.102595 0.658148 0)
(-0.0963634 0.647244 0)
(-0.0904644 0.636974 0)
(-0.084867 0.627309 0)
(-0.0794965 0.618225 0)
(-0.0743303 0.609717 0)
(-0.0693955 0.601764 0)
(-0.064672 0.594342 0)
(-0.0601366 0.58743 0)
(-0.0557688 0.581011 0)
(-0.0515512 0.575067 0)
(-0.0474682 0.569576 0)
(-0.0435019 0.564495 0)
(-0.039633 0.559794 0)
(-0.0358463 0.55549 0)
(-0.0321291 0.551601 0)
(-0.0284697 0.548124 0)
(-0.0248569 0.545054 0)
(-0.0212792 0.542387 0)
(-0.0177252 0.540118 0)
(-0.0141834 0.538244 0)
(-0.0106423 0.536762 0)
(-0.00709016 0.53567 0)
(-0.00351468 0.534968 0)
(9.73912e-05 0.534653 0)
(0.00376013 0.534725 0)
(0.00747814 0.535316 0)
(0.0112328 0.53672 0)
(0.0150011 0.53881 0)
(0.0187828 0.541309 0)
(0.0225963 0.544269 0)
(0.0264522 0.547713 0)
(0.0303561 0.551608 0)
(0.0343218 0.555937 0)
(0.0383677 0.560707 0)
(0.0425119 0.565927 0)
(0.0467738 0.571608 0)
(0.0511738 0.577764 0)
(0.0557345 0.584407 0)
(0.0604799 0.591554 0)
(0.0654367 0.599223 0)
(0.0706341 0.607432 0)
(0.0761044 0.616203 0)
(0.0818838 0.625556 0)
(0.0880131 0.635517 0)
(0.0945374 0.646108 0)
(0.101506 0.657353 0)
(0.108971 0.669274 0)
(0.116976 0.681892 0)
(0.125565 0.69525 0)
(0.134889 0.709594 0)
(0.145076 0.724742 0)
(0.156255 0.740693 0)
(0.168582 0.757502 0)
(0.18216 0.775196 0)
(0.197165 0.793778 0)
(0.213801 0.813229 0)
(0.2323 0.833498 0)
(0.252913 0.854488 0)
(0.275901 0.876055 0)
(0.301517 0.897991 0)
(0.329919 0.919993 0)
(0.360991 0.941621 0)
(0.39405 0.962206 0)
(0.426869 0.980456 0)
(0.449431 0.992912 0)
(0.418376 0.988185 0)
(0.260666 0.927998 0)
(0.0871218 0.694326 0)
(-0.261335 1.02006 0)
(-0.502472 1.24105 0)
(-0.715479 1.27004 0)
(-0.76679 1.25549 0)
(-0.737775 1.22811 0)
(-0.691124 1.19667 0)
(-0.64294 1.16418 0)
(-0.596893 1.13172 0)
(-0.554117 1.09982 0)
(-0.514824 1.06872 0)
(-0.478844 1.03855 0)
(-0.445899 1.00942 0)
(-0.415702 0.981361 0)
(-0.387989 0.954419 0)
(-0.36252 0.928604 0)
(-0.339079 0.903914 0)
(-0.317468 0.880338 0)
(-0.29751 0.857851 0)
(-0.279046 0.836426 0)
(-0.261934 0.81603 0)
(-0.246046 0.796627 0)
(-0.231268 0.77818 0)
(-0.217496 0.760651 0)
(-0.204635 0.744005 0)
(-0.192603 0.728204 0)
(-0.181323 0.713212 0)
(-0.170726 0.698994 0)
(-0.160751 0.685516 0)
(-0.151343 0.672746 0)
(-0.142453 0.660653 0)
(-0.134037 0.649208 0)
(-0.126056 0.638386 0)
(-0.118473 0.628165 0)
(-0.111254 0.618523 0)
(-0.104364 0.609443 0)
(-0.0977696 0.600908 0)
(-0.0914445 0.592883 0)
(-0.0853717 0.585353 0)
(-0.0795314 0.578306 0)
(-0.0739033 0.571729 0)
(-0.0684673 0.565608 0)
(-0.0632052 0.559929 0)
(-0.0581005 0.554671 0)
(-0.0531325 0.549782 0)
(-0.0482799 0.545232 0)
(-0.0435271 0.541047 0)
(-0.0388596 0.537252 0)
(-0.0342632 0.533845 0)
(-0.0297244 0.530823 0)
(-0.0252301 0.52818 0)
(-0.0207672 0.525911 0)
(-0.0163228 0.524012 0)
(-0.0118845 0.522478 0)
(-0.00743919 0.521308 0)
(-0.00297379 0.520498 0)
(0.0015257 0.520045 0)
(0.00607365 0.519948 0)
(0.0106788 0.520384 0)
(0.0153296 0.521715 0)
(0.0200044 0.523764 0)
(0.0247018 0.526189 0)
(0.029444 0.529049 0)
(0.0342463 0.532375 0)
(0.0391138 0.536126 0)
(0.0440609 0.540277 0)
(0.0491083 0.544828 0)
(0.0542764 0.549787 0)
(0.0595862 0.555164 0)
(0.0650607 0.560968 0)
(0.0707244 0.567209 0)
(0.0766038 0.573899 0)
(0.0827277 0.581049 0)
(0.0891271 0.588672 0)
(0.095836 0.596782 0)
(0.102892 0.605392 0)
(0.110335 0.614516 0)
(0.118212 0.624168 0)
(0.126573 0.634361 0)
(0.135472 0.645112 0)
(0.144971 0.656435 0)
(0.155141 0.668351 0)
(0.16607 0.680885 0)
(0.177854 0.694027 0)
(0.1906 0.707784 0)
(0.204422 0.722129 0)
(0.219439 0.737042 0)
(0.235783 0.752493 0)
(0.253602 0.768435 0)
(0.273056 0.784797 0)
(0.294315 0.80148 0)
(0.317547 0.818355 0)
(0.342891 0.835248 0)
(0.370369 0.851934 0)
(0.399701 0.868102 0)
(0.429999 0.883258 0)
(0.458765 0.896345 0)
(0.475612 0.904229 0)
(0.436849 0.896041 0)
(0.271247 0.833954 0)
(0.0896942 0.601467 0)
(-0.266957 0.869471 0)
(-0.519513 1.10186 0)
(-0.740829 1.14425 0)
(-0.799866 1.13872 0)
(-0.776709 1.11898 0)
(-0.734194 1.09478 0)
(-0.688758 1.06912 0)
(-0.644375 1.04308 0)
(-0.602472 1.01712 0)
(-0.563471 0.991515 0)
(-0.527346 0.966447 0)
(-0.493916 0.942028 0)
(-0.462969 0.918337 0)
(-0.434297 0.895424 0)
(-0.407705 0.873321 0)
(-0.383013 0.852043 0)
(-0.360055 0.831596 0)
(-0.338684 0.811974 0)
(-0.318762 0.793171 0)
(-0.300164 0.77517 0)
(-0.282777 0.757954 0)
(-0.266498 0.741504 0)
(-0.251232 0.725798 0)
(-0.236895 0.710816 0)
(-0.223408 0.696533 0)
(-0.210701 0.682928 0)
(-0.198709 0.669977 0)
(-0.187372 0.657657 0)
(-0.176635 0.645946 0)
(-0.16645 0.634824 0)
(-0.156771 0.624271 0)
(-0.147559 0.614268 0)
(-0.138774 0.604798 0)
(-0.130381 0.595843 0)
(-0.122349 0.587388 0)
(-0.114645 0.579417 0)
(-0.107244 0.571914 0)
(-0.10012 0.564865 0)
(-0.0932514 0.558258 0)
(-0.086615 0.552081 0)
(-0.0801903 0.546324 0)
(-0.0739582 0.540973 0)
(-0.0679018 0.536006 0)
(-0.061998 0.531363 0)
(-0.0562241 0.527017 0)
(-0.0505656 0.523002 0)
(-0.0450067 0.519347 0)
(-0.0395314 0.516053 0)
(-0.0341251 0.513117 0)
(-0.0287735 0.510533 0)
(-0.0234626 0.508295 0)
(-0.0181788 0.5064 0)
(-0.0129086 0.504842 0)
(-0.00763822 0.503617 0)
(-0.00235386 0.502722 0)
(0.00295904 0.502153 0)
(0.00831495 0.501907 0)
(0.0137269 0.502192 0)
(0.0191916 0.503437 0)
(0.0246893 0.505434 0)
(0.030217 0.507771 0)
(0.0357992 0.510509 0)
(0.0414573 0.513691 0)
(0.0471954 0.517273 0)
(0.0530265 0.521214 0)
(0.0589739 0.525515 0)
(0.0650586 0.53018 0)
(0.0713027 0.535216 0)
(0.07773 0.54063 0)
(0.0843657 0.546427 0)
(0.0912371 0.552616 0)
(0.098373 0.559203 0)
(0.105805 0.566196 0)
(0.113567 0.573603 0)
(0.121695 0.581429 0)
(0.130229 0.589681 0)
(0.139214 0.598366 0)
(0.148698 0.607488 0)
(0.158734 0.617051 0)
(0.16938 0.627059 0)
(0.1807 0.637511 0)
(0.192767 0.648405 0)
(0.205659 0.65973 0)
(0.219459 0.671471 0)
(0.23426 0.683601 0)
(0.250157 0.696088 0)
(0.267254 0.708886 0)
(0.28566 0.72194 0)
(0.305488 0.735176 0)
(0.32685 0.7485 0)
(0.349851 0.761795 0)
(0.37455 0.774916 0)
(0.40088 0.787681 0)
(0.428464 0.799848 0)
(0.456318 0.811034 0)
(0.481853 0.820345 0)
(0.494617 0.824907 0)
(0.450915 0.814255 0)
(0.280383 0.751063 0)
(0.0924826 0.521524 0)
(-0.272122 0.739469 0)
(-0.534524 0.974933 0)
(-0.761684 1.02647 0)
(-0.825667 1.02754 0)
(-0.806467 1.01364 0)
(-0.767147 0.995213 0)
(-0.724187 0.975267 0)
(-0.681608 0.954733 0)
(-0.640914 0.933999 0)
(-0.602624 0.913299 0)
(-0.566802 0.892801 0)
(-0.533346 0.872631 0)
(-0.502107 0.852881 0)
(-0.47293 0.833621 0)
(-0.445663 0.814899 0)
(-0.420162 0.796749 0)
(-0.396291 0.779193 0)
(-0.373924 0.762243 0)
(-0.352944 0.745906 0)
(-0.333243 0.730183 0)
(-0.314722 0.715069 0)
(-0.297286 0.700558 0)
(-0.280851 0.686641 0)
(-0.265341 0.673307 0)
(-0.250683 0.660544 0)
(-0.236812 0.64834 0)
(-0.223666 0.63668 0)
(-0.211189 0.625551 0)
(-0.199328 0.614939 0)
(-0.188036 0.604831 0)
(-0.177269 0.595214 0)
(-0.166987 0.586074 0)
(-0.157153 0.577398 0)
(-0.14773 0.569175 0)
(-0.138688 0.561393 0)
(-0.129996 0.55404 0)
(-0.121624 0.547105 0)
(-0.113549 0.540579 0)
(-0.105745 0.534452 0)
(-0.0981898 0.528714 0)
(-0.0908619 0.523357 0)
(-0.0837416 0.518368 0)
(-0.0768116 0.513724 0)
(-0.0700463 0.50936 0)
(-0.063423 0.505248 0)
(-0.0569285 0.501435 0)
(-0.0505464 0.497951 0)
(-0.0442596 0.494798 0)
(-0.0380529 0.491973 0)
(-0.0319113 0.48947 0)
(-0.0258205 0.487285 0)
(-0.0197661 0.485412 0)
(-0.013734 0.483847 0)
(-0.00771024 0.482585 0)
(-0.00168045 0.481622 0)
(0.00437007 0.480953 0)
(0.0104556 0.480575 0)
(0.0165928 0.480706 0)
(0.0227876 0.481844 0)
(0.0290225 0.483769 0)
(0.0352932 0.485996 0)
(0.0416243 0.488586 0)
(0.0480448 0.491593 0)
(0.0545576 0.494972 0)
(0.0611726 0.498673 0)
(0.0679152 0.502691 0)
(0.074807 0.507029 0)
(0.0818696 0.511691 0)
(0.0891266 0.516681 0)
(0.0966033 0.522002 0)
(0.104326 0.527659 0)
(0.112323 0.533655 0)
(0.120625 0.539992 0)
(0.129264 0.546672 0)
(0.138274 0.553699 0)
(0.147694 0.56107 0)
(0.157565 0.568788 0)
(0.167931 0.576849 0)
(0.17884 0.585249 0)
(0.190343 0.593983 0)
(0.202495 0.603042 0)
(0.215359 0.612412 0)
(0.228996 0.622075 0)
(0.243476 0.632009 0)
(0.258871 0.642181 0)
(0.275256 0.652554 0)
(0.292708 0.663081 0)
(0.311306 0.673704 0)
(0.331131 0.684352 0)
(0.352256 0.694942 0)
(0.374743 0.705373 0)
(0.398605 0.715528 0)
(0.423735 0.725267 0)
(0.449719 0.734411 0)
(0.475557 0.74266 0)
(0.498664 0.749248 0)
(0.5086 0.751492 0)
(0.46163 0.739322 0)
(0.287726 0.676423 0)
(0.0948422 0.453721 0)
(-0.276287 0.63128 0)
(-0.546653 0.862784 0)
(-0.778248 0.919578 0)
(-0.845761 0.925257 0)
(-0.829418 0.915661 0)
(-0.79254 0.901574 0)
(-0.751629 0.885999 0)
(-0.710699 0.869784 0)
(-0.671263 0.853247 0)
(-0.633866 0.836573 0)
(-0.598611 0.819902 0)
(-0.565442 0.803345 0)
(-0.53425 0.786992 0)
(-0.50492 0.770914 0)
(-0.477332 0.755167 0)
(-0.451372 0.739794 0)
(-0.42693 0.724826 0)
(-0.4039 0.710289 0)
(-0.382183 0.696197 0)
(-0.361687 0.682563 0)
(-0.342323 0.669393 0)
(-0.324009 0.656689 0)
(-0.30667 0.644452 0)
(-0.290237 0.632679 0)
(-0.274644 0.621367 0)
(-0.259831 0.61051 0)
(-0.245739 0.600102 0)
(-0.232316 0.590136 0)
(-0.219512 0.580604 0)
(-0.207283 0.571498 0)
(-0.195587 0.56281 0)
(-0.184386 0.554532 0)
(-0.173642 0.546656 0)
(-0.163321 0.539173 0)
(-0.153392 0.532075 0)
(-0.143825 0.525355 0)
(-0.13459 0.519004 0)
(-0.125664 0.513016 0)
(-0.11702 0.507384 0)
(-0.108638 0.5021 0)
(-0.100493 0.497158 0)
(-0.0925673 0.492546 0)
(-0.084843 0.48824 0)
(-0.0772924 0.48417 0)
(-0.0698931 0.480311 0)
(-0.0626348 0.476719 0)
(-0.0555003 0.473425 0)
(-0.048472 0.470432 0)
(-0.0415344 0.467737 0)
(-0.0346726 0.465334 0)
(-0.0278714 0.463218 0)
(-0.0211165 0.461385 0)
(-0.0143935 0.45983 0)
(-0.00768803 0.458549 0)
(-0.00098579 0.457536 0)
(0.0057278 0.456787 0)
(0.0124665 0.456297 0)
(0.0192499 0.456278 0)
(0.0260932 0.457292 0)
(0.0329818 0.459126 0)
(0.0399108 0.461228 0)
(0.0469022 0.46365 0)
(0.0539945 0.466458 0)
(0.0611892 0.469615 0)
(0.0684915 0.473055 0)
(0.0759292 0.476772 0)
(0.0835231 0.480766 0)
(0.0912945 0.48504 0)
(0.0992659 0.489595 0)
(0.107461 0.494432 0)
(0.115906 0.499553 0)
(0.124628 0.504958 0)
(0.133654 0.510645 0)
(0.143015 0.516614 0)
(0.152743 0.522863 0)
(0.162872 0.529387 0)
(0.173441 0.536183 0)
(0.184488 0.543242 0)
(0.196056 0.550557 0)
(0.208189 0.558116 0)
(0.220935 0.565905 0)
(0.234344 0.573907 0)
(0.248468 0.582099 0)
(0.263363 0.590455 0)
(0.279086 0.598942 0)
(0.295694 0.607522 0)
(0.313247 0.61615 0)
(0.331803 0.624772 0)
(0.351419 0.633326 0)
(0.372147 0.641742 0)
(0.394023 0.649938 0)
(0.417043 0.657825 0)
(0.441082 0.665297 0)
(0.465724 0.67222 0)
(0.489973 0.678355 0)
(0.511265 0.683016 0)
(0.519155 0.683681 0)
(0.469829 0.670736 0)
(0.293428 0.609401 0)
(0.0966806 0.396634 0)
(-0.279544 0.540714 0)
(-0.556198 0.763269 0)
(-0.791279 0.822273 0)
(-0.861549 0.831027 0)
(-0.847413 0.824626 0)
(-0.812462 0.813844 0)
(-0.773235 0.801628 0)
(-0.733728 0.788772 0)
(-0.695447 0.775546 0)
(-0.658947 0.762101 0)
(-0.624345 0.748548 0)
(-0.591608 0.73498 0)
(-0.560652 0.721476 0)
(-0.531385 0.708102 0)
(-0.503711 0.694913 0)
(-0.477536 0.681952 0)
(-0.452768 0.669256 0)
(-0.429319 0.656853 0)
(-0.407106 0.644767 0)
(-0.386048 0.633015 0)
(-0.366069 0.621608 0)
(-0.347098 0.610557 0)
(-0.329066 0.599867 0)
(-0.311912 0.589543 0)
(-0.295575 0.579587 0)
(-0.280001 0.569998 0)
(-0.265136 0.560776 0)
(-0.250932 0.551917 0)
(-0.237342 0.543421 0)
(-0.224325 0.535281 0)
(-0.21184 0.527495 0)
(-0.199852 0.520058 0)
(-0.188324 0.512965 0)
(-0.177224 0.506211 0)
(-0.16652 0.499792 0)
(-0.156184 0.493701 0)
(-0.146187 0.487934 0)
(-0.136506 0.482486 0)
(-0.127115 0.477352 0)
(-0.117993 0.472528 0)
(-0.109117 0.468006 0)
(-0.100467 0.463778 0)
(-0.0920271 0.459819 0)
(-0.0837671 0.456053 0)
(-0.075666 0.452462 0)
(-0.0677167 0.449108 0)
(-0.0599012 0.446022 0)
(-0.0522019 0.443206 0)
(-0.0446033 0.440658 0)
(-0.0370903 0.438372 0)
(-0.0296479 0.436345 0)
(-0.0222614 0.434571 0)
(-0.0149166 0.433046 0)
(-0.0075991 0.431766 0)
(-0.000294863 0.430725 0)
(0.00701035 0.429918 0)
(0.0143297 0.429342 0)
(0.0216844 0.429182 0)
(0.0290987 0.430065 0)
(0.036562 0.431796 0)
(0.0440698 0.43376 0)
(0.0516384 0.436002 0)
(0.0593176 0.438598 0)
(0.0671076 0.441518 0)
(0.0750072 0.444686 0)
(0.0830467 0.448094 0)
(0.0912462 0.451739 0)
(0.0996257 0.455623 0)
(0.108206 0.459744 0)
(0.117011 0.464104 0)
(0.126064 0.4687 0)
(0.135389 0.47353 0)
(0.145012 0.478592 0)
(0.154963 0.483882 0)
(0.165269 0.489395 0)
(0.175962 0.495125 0)
(0.187076 0.501063 0)
(0.198645 0.507201 0)
(0.210706 0.513527 0)
(0.223297 0.520028 0)
(0.236459 0.526686 0)
(0.250233 0.533483 0)
(0.264664 0.540396 0)
(0.279796 0.547397 0)
(0.295674 0.554456 0)
(0.312344 0.561536 0)
(0.329853 0.568597 0)
(0.348246 0.575592 0)
(0.367566 0.582469 0)
(0.387853 0.589171 0)
(0.409132 0.595634 0)
(0.43139 0.601787 0)
(0.454499 0.607553 0)
(0.478044 0.612826 0)
(0.501039 0.617406 0)
(0.520934 0.620667 0)
(0.527273 0.620245 0)
(0.476155 0.607069 0)
(0.297852 0.548298 0)
(0.0981044 0.347711 0)
(-0.282129 0.463607 0)
(-0.563773 0.673704 0)
(-0.801597 0.732622 0)
(-0.874075 0.743283 0)
(-0.861706 0.739275 0)
(-0.828325 0.731064 0)
(-0.790501 0.721489 0)
(-0.752208 0.71129 0)
(-0.714947 0.700706 0)
(-0.679274 0.68986 0)
(-0.645319 0.678845 0)
(-0.613058 0.667739 0)
(-0.582421 0.656608 0)
(-0.553331 0.645512 0)
(-0.525707 0.634501 0)
(-0.49947 0.623616 0)
(-0.47454 0.612894 0)
(-0.450843 0.602364 0)
(-0.428305 0.592051 0)
(-0.406859 0.581976 0)
(-0.386437 0.572154 0)
(-0.366976 0.562599 0)
(-0.348416 0.55332 0)
(-0.330699 0.544325 0)
(-0.313773 0.535621 0)
(-0.297587 0.52721 0)
(-0.282093 0.519097 0)
(-0.267245 0.51128 0)
(-0.253001 0.503762 0)
(-0.239322 0.496542 0)
(-0.22617 0.489619 0)
(-0.21351 0.48299 0)
(-0.20131 0.476654 0)
(-0.189536 0.470608 0)
(-0.178159 0.464849 0)
(-0.167151 0.459375 0)
(-0.156486 0.454182 0)
(-0.14614 0.449268 0)
(-0.136089 0.444628 0)
(-0.12631 0.44026 0)
(-0.116782 0.436159 0)
(-0.107486 0.432317 0)
(-0.098405 0.428707 0)
(-0.0895089 0.425253 0)
(-0.0807781 0.421942 0)
(-0.0722091 0.41884 0)
(-0.0637828 0.415976 0)
(-0.0554818 0.413353 0)
(-0.0472908 0.410969 0)
(-0.0391945 0.408818 0)
(-0.0311781 0.406898 0)
(-0.023227 0.405203 0)
(-0.0153271 0.403728 0)
(-0.00746444 0.402471 0)
(0.000374684 0.401425 0)
(0.00820394 0.400586 0)
(0.0160359 0.39995 0)
(0.0238918 0.399667 0)
(0.0318049 0.400414 0)
(0.039769 0.402032 0)
(0.0477814 0.40385 0)
(0.0558498 0.405903 0)
(0.0640371 0.408278 0)
(0.0723427 0.410952 0)
(0.0807571 0.413843 0)
(0.0893134 0.416938 0)
(0.0980309 0.420234 0)
(0.106928 0.423732 0)
(0.116025 0.42743 0)
(0.125342 0.431326 0)
(0.134901 0.435417 0)
(0.144727 0.4397 0)
(0.154842 0.44417 0)
(0.165271 0.448823 0)
(0.176041 0.453651 0)
(0.187181 0.458648 0)
(0.198719 0.463803 0)
(0.210686 0.469106 0)
(0.223114 0.474545 0)
(0.236037 0.480105 0)
(0.249488 0.485769 0)
(0.263503 0.491517 0)
(0.278119 0.497328 0)
(0.293373 0.503175 0)
(0.309302 0.509031 0)
(0.325944 0.514864 0)
(0.343337 0.520637 0)
(0.361519 0.526311 0)
(0.380525 0.531844 0)
(0.400387 0.537188 0)
(0.421125 0.542294 0)
(0.442725 0.547105 0)
(0.465056 0.55156 0)
(0.487706 0.555577 0)
(0.509701 0.558978 0)
(0.528497 0.561195 0)
(0.533628 0.56003 0)
(0.481111 0.547032 0)
(0.301339 0.491591 0)
(0.0992272 0.304839 0)
(-0.284225 0.396781 0)
(-0.56988 0.591908 0)
(-0.809869 0.649013 0)
(-0.884132 0.660693 0)
(-0.873201 0.658476 0)
(-0.841117 0.652296 0)
(-0.804469 0.644833 0)
(-0.767212 0.636773 0)
(-0.730837 0.628325 0)
(-0.695905 0.619597 0)
(-0.66255 0.610665 0)
(-0.630755 0.601596 0)
(-0.600461 0.592446 0)
(-0.571597 0.58327 0)
(-0.544094 0.574109 0)
(-0.51788 0.565005 0)
(-0.492889 0.55599 0)
(-0.469054 0.547094 0)
(-0.446311 0.53834 0)
(-0.424599 0.529751 0)
(-0.403858 0.521343 0)
(-0.384033 0.513132 0)
(-0.365068 0.50513 0)
(-0.346913 0.497348 0)
(-0.32952 0.489792 0)
(-0.312842 0.482469 0)
(-0.296836 0.475384 0)
(-0.281459 0.468541 0)
(-0.266672 0.461942 0)
(-0.252438 0.455588 0)
(-0.238722 0.449482 0)
(-0.225491 0.443624 0)
(-0.212714 0.438013 0)
(-0.20036 0.432648 0)
(-0.188401 0.427529 0)
(-0.17681 0.422654 0)
(-0.165563 0.418021 0)
(-0.154635 0.413629 0)
(-0.144003 0.409476 0)
(-0.133647 0.405559 0)
(-0.123543 0.401875 0)
(-0.113674 0.398416 0)
(-0.104025 0.395157 0)
(-0.0945638 0.392019 0)
(-0.0852733 0.388996 0)
(-0.0761535 0.386157 0)
(-0.0671843 0.383529 0)
(-0.0583484 0.381113 0)
(-0.0496307 0.378907 0)
(-0.0410163 0.376908 0)
(-0.0324905 0.375112 0)
(-0.024039 0.373514 0)
(-0.0156479 0.37211 0)
(-0.00730382 0.370897 0)
(0.00100652 0.36987 0)
(0.0092962 0.369024 0)
(0.0175772 0.368355 0)
(0.0258696 0.367971 0)
(0.0342147 0.368586 0)
(0.0426118 0.370081 0)
(0.0510608 0.371747 0)
(0.0595582 0.373608 0)
(0.0681819 0.375756 0)
(0.0769312 0.37818 0)
(0.0857865 0.380791 0)
(0.0947839 0.383575 0)
(0.103942 0.386529 0)
(0.113278 0.389652 0)
(0.122809 0.39294 0)
(0.132555 0.396391 0)
(0.142538 0.400003 0)
(0.152776 0.40377 0)
(0.163293 0.407687 0)
(0.174111 0.411748 0)
(0.185254 0.415946 0)
(0.196747 0.420273 0)
(0.208616 0.424719 0)
(0.220887 0.429273 0)
(0.233589 0.433922 0)
(0.246751 0.438652 0)
(0.260403 0.443445 0)
(0.274574 0.448285 0)
(0.289297 0.45315 0)
(0.304603 0.458017 0)
(0.320524 0.462862 0)
(0.337093 0.467655 0)
(0.354341 0.472367 0)
(0.372302 0.476964 0)
(0.391007 0.48141 0)
(0.410484 0.485668 0)
(0.430751 0.489696 0)
(0.451791 0.49345 0)
(0.473475 0.496881 0)
(0.495394 0.499918 0)
(0.516581 0.502407 0)
(0.534502 0.503832 0)
(0.538678 0.502174 0)
(0.485053 0.48966 0)
(0.304136 0.438136 0)
(0.100132 0.266469 0)
(-0.285954 0.337887 0)
(-0.574887 0.516186 0)
(-0.816599 0.570162 0)
(-0.892309 0.582184 0)
(-0.88255 0.5813 0)
(-0.851543 0.576743 0)
(-0.815882 0.570995 0)
(-0.779508 0.564681 0)
(-0.743901 0.557987 0)
(-0.709621 0.551004 0)
(-0.676806 0.5438 0)
(-0.645444 0.536431 0)
(-0.615482 0.528948 0)
(-0.586856 0.521396 0)
(-0.559503 0.513814 0)
(-0.53336 0.506239 0)
(-0.508366 0.4987 0)
(-0.484462 0.491227 0)
(-0.461589 0.483843 0)
(-0.439695 0.476568 0)
(-0.418723 0.46942 0)
(-0.398624 0.462414 0)
(-0.379347 0.455563 0)
(-0.360848 0.44888 0)
(-0.343082 0.442372 0)
(-0.326007 0.436048 0)
(-0.309582 0.429914 0)
(-0.293769 0.423974 0)
(-0.27853 0.418234 0)
(-0.263831 0.412695 0)
(-0.249639 0.407361 0)
(-0.235924 0.402233 0)
(-0.222655 0.397312 0)
(-0.209804 0.392599 0)
(-0.197344 0.388093 0)
(-0.185249 0.383796 0)
(-0.173496 0.379705 0)
(-0.162062 0.375821 0)
(-0.150924 0.372142 0)
(-0.140062 0.368667 0)
(-0.129454 0.365394 0)
(-0.119082 0.362314 0)
(-0.108934 0.359404 0)
(-0.0989762 0.356586 0)
(-0.0891932 0.353858 0)
(-0.0795893 0.351293 0)
(-0.0701425 0.348911 0)
(-0.0608359 0.346714 0)
(-0.0516549 0.344702 0)
(-0.0425847 0.342869 0)
(-0.033611 0.341214 0)
(-0.0247197 0.339731 0)
(-0.0158976 0.338419 0)
(-0.00713163 0.337272 0)
(0.00159083 0.336287 0)
(0.0102823 0.335459 0)
(0.0189544 0.334784 0)
(0.0276241 0.334327 0)
(0.0363405 0.334818 0)
(0.0451092 0.336185 0)
(0.0539325 0.337694 0)
(0.0627966 0.339362 0)
(0.0717913 0.34128 0)
(0.080919 0.343449 0)
(0.0901502 0.345782 0)
(0.0995215 0.34826 0)
(0.109052 0.350879 0)
(0.118756 0.353638 0)
(0.128651 0.356533 0)
(0.138756 0.359561 0)
(0.149089 0.362719 0)
(0.159668 0.366002 0)
(0.170514 0.369405 0)
(0.181647 0.37292 0)
(0.193089 0.376541 0)
(0.204862 0.380259 0)
(0.216989 0.384065 0)
(0.229495 0.387947 0)
(0.242403 0.391895 0)
(0.25574 0.395893 0)
(0.269531 0.399927 0)
(0.283803 0.40398 0)
(0.298585 0.408033 0)
(0.313903 0.412066 0)
(0.329787 0.416058 0)
(0.346265 0.419982 0)
(0.363365 0.423814 0)
(0.381117 0.427525 0)
(0.39955 0.431086 0)
(0.41869 0.434463 0)
(0.438554 0.437624 0)
(0.459123 0.440532 0)
(0.480268 0.443146 0)
(0.501586 0.445408 0)
(0.522116 0.44718 0)
(0.539332 0.447999 0)
(0.542746 0.446037 0)
(0.488232 0.434246 0)
(0.306419 0.387094 0)
(0.100877 0.231481 0)
(-0.287412 0.285198 0)
(-0.579066 0.445264 0)
(-0.822134 0.49509 0)
(-0.899029 0.506927 0)
(-0.890229 0.507016 0)
(-0.860115 0.503765 0)
(-0.825288 0.499421 0)
(-0.789665 0.494546 0)
(-0.754719 0.489305 0)
(-0.721005 0.483777 0)
(-0.688665 0.478019 0)
(-0.657691 0.472082 0)
(-0.628034 0.466009 0)
(-0.599636 0.45984 0)
(-0.57244 0.453612 0)
(-0.546386 0.447356 0)
(-0.52142 0.4411 0)
(-0.497485 0.434871 0)
(-0.474531 0.428691 0)
(-0.452507 0.422581 0)
(-0.431364 0.416556 0)
(-0.411055 0.410632 0)
(-0.391535 0.404822 0)
(-0.372763 0.399137 0)
(-0.354697 0.393587 0)
(-0.337298 0.38818 0)
(-0.320529 0.382924 0)
(-0.304354 0.377823 0)
(-0.288738 0.372882 0)
(-0.273648 0.368107 0)
(-0.259056 0.3635 0)
(-0.24493 0.359063 0)
(-0.231244 0.354798 0)
(-0.217969 0.350707 0)
(-0.205081 0.34679 0)
(-0.192554 0.343048 0)
(-0.180367 0.339482 0)
(-0.168496 0.33609 0)
(-0.15692 0.332873 0)
(-0.14562 0.329831 0)
(-0.134574 0.32696 0)
(-0.123765 0.324254 0)
(-0.113183 0.32169 0)
(-0.102792 0.319194 0)
(-0.0925795 0.316769 0)
(-0.0825539 0.314484 0)
(-0.072691 0.312359 0)
(-0.0629743 0.310394 0)
(-0.0533896 0.308587 0)
(-0.0439225 0.306936 0)
(-0.0345591 0.305437 0)
(-0.0252857 0.304088 0)
(-0.0160896 0.302885 0)
(-0.0069581 0.301824 0)
(0.00212089 0.300903 0)
(0.0111593 0.300116 0)
(0.0201687 0.299461 0)
(0.0291611 0.29896 0)
(0.0381924 0.29934 0)
(0.0472759 0.300568 0)
(0.0564167 0.301916 0)
(0.0656006 0.303397 0)
(0.0749068 0.305086 0)
(0.084348 0.306994 0)
(0.0938974 0.309049 0)
(0.103583 0.311226 0)
(0.113426 0.31352 0)
(0.123439 0.315928 0)
(0.133639 0.318447 0)
(0.144041 0.321074 0)
(0.154664 0.323805 0)
(0.165525 0.326635 0)
(0.17664 0.32956 0)
(0.18803 0.332572 0)
(0.199714 0.335664 0)
(0.211711 0.338829 0)
(0.224043 0.342057 0)
(0.236731 0.345339 0)
(0.249797 0.348663 0)