/*--------------------------------*- C++ -*----------------------------------*\
| =========                 |                                                 |
| \\      /  F ield         | OpenFOAM: The Open Source CFD Toolbox           |
|  \\    /   O peration     | Version:  2406                                  |
|   \\  /    A nd           | Website:  www.openfoam.com                      |
|    \\/     M anipulation  |                                                 |
\*---------------------------------------------------------------------------*/
FoamFile
{
    version     2.0;
    format      ascii;
    arch        "LSB;label=32;scalar=64";
    class       volScalarField;
    location    "5";
    object      nut;
}
// * * * * * * * * * * * * * * * * * * * * * * * * * * * * * * * * * * * * * //

dimensions      [0 2 -1 0 0 0 0];

internalField   nonuniform List<scalar> 
38016
(
2.41704e-08
2.41704e-08
2.41704e-08
2.41704e-08
2.41704e-08
2.41704e-08
2.41704e-08
2.41704e-08
2.41704e-08
2.41704e-08
2.41704e-08
2.41704e-08
2.41704e-08
2.41704e-08
2.41704e-08
2.41704e-08
2.41704e-08
2.41705e-08
2.41706e-08
2.41709e-08
2.41713e-08
2.4172e-08
2.41733e-08
2.41756e-08
2.41799e-08
2.41874e-08
2.4198e-08
2.42118e-08
2.42284e-08
2.42473e-08
2.42683e-08
2.42906e-08
2.43138e-08
2.43382e-08
2.4362e-08
2.43867e-08
2.44106e-08
2.44299e-08
2.44478e-08
2.44656e-08
2.44792e-08
2.44893e-08
2.45136e-08
2.45324e-08
2.45389e-08
2.4552e-08
2.45677e-08
2.45904e-08
2.41704e-08
2.41704e-08
2.41704e-08
2.41704e-08
2.41704e-08
2.41704e-08
2.41704e-08
2.41704e-08
2.41704e-08
2.41704e-08
2.41704e-08
2.41704e-08
2.41704e-08
2.41704e-08
2.41704e-08
2.41704e-08
2.41704e-08
2.41705e-08
2.41706e-08
2.41709e-08
2.41713e-08
2.41721e-08
2.41734e-08
2.41757e-08
2.41802e-08
2.41879e-08
2.41987e-08
2.42128e-08
2.42297e-08
2.42489e-08
2.42704e-08
2.4293e-08
2.43166e-08
2.43412e-08
2.4365e-08
2.43894e-08
2.44123e-08
2.44313e-08
2.44479e-08
2.44642e-08
2.44777e-08
2.44876e-08
2.45137e-08
2.45297e-08
2.45352e-08
2.4547e-08
2.45605e-08
2.45805e-08
2.41704e-08
2.41704e-08
2.41704e-08
2.41704e-08
2.41704e-08
2.41704e-08
2.41704e-08
2.41704e-08
2.41704e-08
2.41704e-08
2.41704e-08
2.41704e-08
2.41704e-08
2.41704e-08
2.41704e-08
2.41704e-08
2.41704e-08
2.41705e-08
2.41706e-08
2.41709e-08
2.41714e-08
2.41722e-08
2.41736e-08
2.4176e-08
2.41807e-08
2.41887e-08
2.42e-08
2.42147e-08
2.42322e-08
2.42522e-08
2.42744e-08
2.42976e-08
2.43218e-08
2.43468e-08
2.43711e-08
2.43958e-08
2.44182e-08
2.4437e-08
2.44541e-08
2.44704e-08
2.44824e-08
2.44927e-08
2.45098e-08
2.45228e-08
2.45304e-08
2.45422e-08
2.45539e-08
2.45684e-08
2.41704e-08
2.41704e-08
2.41704e-08
2.41704e-08
2.41704e-08
2.41704e-08
2.41704e-08
2.41704e-08
2.41704e-08
2.41704e-08
2.41704e-08
2.41704e-08
2.41704e-08
2.41704e-08
2.41704e-08
2.41704e-08
2.41704e-08
2.41705e-08
2.41707e-08
2.4171e-08
2.41715e-08
2.41723e-08
2.41738e-08
2.41763e-08
2.41813e-08
2.41897e-08
2.42016e-08
2.4217e-08
2.42353e-08
2.42562e-08
2.42793e-08
2.43033e-08
2.43284e-08
2.4354e-08
2.43787e-08
2.44036e-08
2.44262e-08
2.44451e-08
2.44626e-08
2.44789e-08
2.44912e-08
2.45014e-08
2.45121e-08
2.45204e-08
2.45297e-08
2.45423e-08
2.45528e-08
2.45613e-08
2.41704e-08
2.41704e-08
2.41704e-08
2.41704e-08
2.41704e-08
2.41704e-08
2.41704e-08
2.41704e-08
2.41704e-08
2.41704e-08
2.41704e-08
2.41704e-08
2.41704e-08
2.41704e-08
2.41704e-08
2.41704e-08
2.41704e-08
2.41705e-08
2.41707e-08
2.4171e-08
2.41715e-08
2.41724e-08
2.4174e-08
2.41767e-08
2.4182e-08
2.41908e-08
2.42033e-08
2.42194e-08
2.42386e-08
2.42603e-08
2.42843e-08
2.43092e-08
2.43349e-08
2.4361e-08
2.43861e-08
2.44109e-08
2.44333e-08
2.44521e-08
2.44695e-08
2.44853e-08
2.44971e-08
2.45069e-08
2.45167e-08
2.45236e-08
2.45312e-08
2.45444e-08
2.45545e-08
2.45578e-08
2.41704e-08
2.41704e-08
2.41704e-08
2.41704e-08
2.41704e-08
2.41704e-08
2.41704e-08
2.41704e-08
2.41704e-08
2.41704e-08
2.41704e-08
2.41704e-08
2.41704e-08
2.41704e-08
2.41704e-08
2.41704e-08
2.41704e-08
2.41705e-08
2.41707e-08
2.41711e-08
2.41716e-08
2.41726e-08
2.41742e-08
2.41771e-08
2.41827e-08
2.4192e-08
2.4205e-08
2.42219e-08
2.42419e-08
2.42645e-08
2.42892e-08
2.43148e-08
2.4341e-08
2.43673e-08
2.43923e-08
2.44168e-08
2.44388e-08
2.44569e-08
2.44737e-08
2.44886e-08
2.44995e-08
2.45084e-08
2.4517e-08
2.45238e-08
2.45324e-08
2.45458e-08
2.45556e-08
2.45552e-08
2.41704e-08
2.41704e-08
2.41704e-08
2.41704e-08
2.41704e-08
2.41704e-08
2.41704e-08
2.41704e-08
2.41704e-08
2.41704e-08
2.41704e-08
2.41704e-08
2.41704e-08
2.41704e-08
2.41704e-08
2.41704e-08
2.41704e-08
2.41706e-08
2.41708e-08
2.41712e-08
2.41717e-08
2.41728e-08
2.41745e-08
2.41775e-08
2.41834e-08
2.41931e-08
2.42068e-08
2.42244e-08
2.42452e-08
2.42685e-08
2.4294e-08
2.43201e-08
2.43466e-08
2.4373e-08
2.43978e-08
2.44217e-08
2.44429e-08
2.44603e-08
2.44762e-08
2.44897e-08
2.44996e-08
2.45075e-08
2.45147e-08
2.45213e-08
2.45321e-08
2.45454e-08
2.45553e-08
2.45525e-08
2.41704e-08
2.41704e-08
2.41704e-08
2.41704e-08
2.41704e-08
2.41704e-08
2.41704e-08
2.41704e-08
2.41704e-08
2.41704e-08
2.41704e-08
2.41704e-08
2.41704e-08
2.41704e-08
2.41704e-08
2.41704e-08
2.41705e-08
2.41706e-08
2.41708e-08
2.41712e-08
2.41718e-08
2.41729e-08
2.41748e-08
2.4178e-08
2.41841e-08
2.41943e-08
2.42086e-08
2.42269e-08
2.42485e-08
2.42725e-08
2.42986e-08
2.43252e-08
2.43519e-08
2.43782e-08
2.44026e-08
2.44257e-08
2.4446e-08
2.44625e-08
2.44773e-08
2.44894e-08
2.44982e-08
2.45049e-08
2.45108e-08
2.45175e-08
2.453e-08
2.45431e-08
2.45532e-08
2.45504e-08
2.41704e-08
2.41704e-08
2.41704e-08
2.41704e-08
2.41704e-08
2.41704e-08
2.41704e-08
2.41704e-08
2.41704e-08
2.41704e-08
2.41704e-08
2.41704e-08
2.41704e-08
2.41704e-08
2.41704e-08
2.41704e-08
2.41705e-08
2.41706e-08
2.41709e-08
2.41713e-08
2.41719e-08
2.41731e-08
2.41751e-08
2.41784e-08
2.41848e-08
2.41955e-08
2.42104e-08
2.42294e-08
2.42517e-08
2.42764e-08
2.4303e-08
2.43299e-08
2.43568e-08
2.43828e-08
2.44066e-08
2.44289e-08
2.44482e-08
2.44636e-08
2.44772e-08
2.44879e-08
2.44954e-08
2.4501e-08
2.45057e-08
2.45137e-08
2.45261e-08
2.4539e-08
2.45498e-08
2.45502e-08
2.41704e-08
2.41704e-08
2.41704e-08
2.41704e-08
2.41704e-08
2.41704e-08
2.41704e-08
2.41704e-08
2.41704e-08
2.41704e-08
2.41704e-08
2.41704e-08
2.41704e-08
2.41704e-08
2.41704e-08
2.41704e-08
2.41705e-08
2.41706e-08
2.41709e-08
2.41714e-08
2.41721e-08
2.41733e-08
2.41753e-08
2.41789e-08
2.41856e-08
2.41967e-08
2.42122e-08
2.42318e-08
2.42548e-08
2.42801e-08
2.43072e-08
2.43343e-08
2.43611e-08
2.43867e-08
2.44098e-08
2.44311e-08
2.44493e-08
2.44637e-08
2.44758e-08
2.44851e-08
2.44914e-08
2.44956e-08
2.44995e-08
2.45089e-08
2.45206e-08
2.45333e-08
2.45452e-08
2.45546e-08
2.41704e-08
2.41704e-08
2.41704e-08
2.41704e-08
2.41704e-08
2.41704e-08
2.41704e-08
2.41704e-08
2.41704e-08
2.41704e-08
2.41704e-08
2.41704e-08
2.41704e-08
2.41704e-08
2.41704e-08
2.41704e-08
2.41705e-08
2.41706e-08
2.41709e-08
2.41714e-08
2.41722e-08
2.41735e-08
2.41756e-08
2.41793e-08
2.41863e-08
2.41979e-08
2.42139e-08
2.42342e-08
2.42578e-08
2.42837e-08
2.43111e-08
2.43383e-08
2.43648e-08
2.43899e-08
2.44122e-08
2.44324e-08
2.44494e-08
2.44625e-08
2.44733e-08
2.44811e-08
2.4486e-08
2.44889e-08
2.44924e-08
2.45026e-08
2.45135e-08
2.45262e-08
2.45392e-08
2.45601e-08
2.41704e-08
2.41704e-08
2.41704e-08
2.41704e-08
2.41704e-08
2.41704e-08
2.41704e-08
2.41704e-08
2.41704e-08
2.41704e-08
2.41704e-08
2.41704e-08
2.41704e-08
2.41704e-08
2.41704e-08
2.41704e-08
2.41705e-08
2.41707e-08
2.4171e-08
2.41715e-08
2.41723e-08
2.41736e-08
2.41759e-08
2.41798e-08
2.41871e-08
2.41991e-08
2.42156e-08
2.42365e-08
2.42607e-08
2.4287e-08
2.43145e-08
2.43417e-08
2.43679e-08
2.43923e-08
2.44136e-08
2.44327e-08
2.44484e-08
2.44603e-08
2.44696e-08
2.4476e-08
2.44794e-08
2.44809e-08
2.44853e-08
2.44948e-08
2.45049e-08
2.45177e-08
2.45321e-08
2.45665e-08
2.41704e-08
2.41704e-08
2.41704e-08
2.41704e-08
2.41704e-08
2.41704e-08
2.41704e-08
2.41704e-08
2.41704e-08
2.41704e-08
2.41704e-08
2.41704e-08
2.41704e-08
2.41704e-08
2.41704e-08
2.41705e-08
2.41705e-08
2.41707e-08
2.4171e-08
2.41716e-08
2.41724e-08
2.41738e-08
2.41762e-08
2.41802e-08
2.41878e-08
2.42002e-08
2.42173e-08
2.42387e-08
2.42633e-08
2.42899e-08
2.43176e-08
2.43446e-08
2.43702e-08
2.43938e-08
2.44141e-08
2.44319e-08
2.44463e-08
2.44568e-08
2.44648e-08
2.44696e-08
2.44715e-08
2.44719e-08
2.44775e-08
2.44857e-08
2.44951e-08
2.4508e-08
2.45239e-08
2.45738e-08
2.41704e-08
2.41704e-08
2.41704e-08
2.41704e-08
2.41704e-08
2.41704e-08
2.41704e-08
2.41704e-08
2.41704e-08
2.41704e-08
2.41704e-08
2.41704e-08
2.41704e-08
2.41704e-08
2.41704e-08
2.41705e-08
2.41705e-08
2.41707e-08
2.41711e-08
2.41717e-08
2.41725e-08
2.4174e-08
2.41765e-08
2.41807e-08
2.41885e-08
2.42013e-08
2.42188e-08
2.42407e-08
2.42657e-08
2.42925e-08
2.43201e-08
2.43467e-08
2.43717e-08
2.43944e-08
2.44136e-08
2.44301e-08
2.44431e-08
2.44523e-08
2.44588e-08
2.44621e-08
2.44624e-08
2.44623e-08
2.44685e-08
2.44754e-08
2.44842e-08
2.44972e-08
2.45147e-08
2.4582e-08
2.41704e-08
2.41704e-08
2.41704e-08
2.41704e-08
2.41704e-08
2.41704e-08
2.41704e-08
2.41704e-08
2.41704e-08
2.41704e-08
2.41704e-08
2.41704e-08
2.41704e-08
2.41705e-08
2.41705e-08
2.41705e-08
2.41706e-08
2.41708e-08
2.41711e-08
2.41718e-08
2.41727e-08
2.41742e-08
2.41768e-08
2.41811e-08
2.41892e-08
2.42023e-08
2.42202e-08
2.42425e-08
2.42678e-08
2.42947e-08
2.43221e-08
2.43482e-08
2.43724e-08
2.43941e-08
2.44121e-08
2.44272e-08
2.44389e-08
2.44466e-08
2.44517e-08
2.44534e-08
2.44523e-08
2.4453e-08
2.44583e-08
2.44641e-08
2.44723e-08
2.44854e-08
2.45045e-08
2.45909e-08
2.41704e-08
2.41704e-08
2.41704e-08
2.41704e-08
2.41704e-08
2.41704e-08
2.41704e-08
2.41704e-08
2.41704e-08
2.41704e-08
2.41704e-08
2.41704e-08
2.41704e-08
2.41705e-08
2.41705e-08
2.41705e-08
2.41706e-08
2.41708e-08
2.41712e-08
2.41718e-08
2.41728e-08
2.41744e-08
2.41771e-08
2.41816e-08
2.41898e-08
2.42033e-08
2.42215e-08
2.4244e-08
2.42695e-08
2.42963e-08
2.43234e-08
2.43489e-08
2.43722e-08
2.43928e-08
2.44095e-08
2.44233e-08
2.44335e-08
2.44398e-08
2.44434e-08
2.44435e-08
2.44413e-08
2.44433e-08
2.44472e-08
2.4452e-08
2.44597e-08
2.4473e-08
2.44935e-08
2.46008e-08
2.41704e-08
2.41704e-08
2.41704e-08
2.41704e-08
2.41704e-08
2.41704e-08
2.41704e-08
2.41704e-08
2.41704e-08
2.41704e-08
2.41704e-08
2.41704e-08
2.41705e-08
2.41705e-08
2.41705e-08
2.41705e-08
2.41706e-08
2.41708e-08
2.41712e-08
2.41719e-08
2.41729e-08
2.41746e-08
2.41774e-08
2.41819e-08
2.41904e-08
2.42041e-08
2.42226e-08
2.42453e-08
2.42708e-08
2.42974e-08
2.4324e-08
2.43487e-08
2.4371e-08
2.43905e-08
2.44059e-08
2.44183e-08
2.4427e-08
2.4432e-08
2.4434e-08
2.44325e-08
2.44299e-08
2.44326e-08
2.44352e-08
2.44392e-08
2.44465e-08
2.44599e-08
2.44818e-08
2.46113e-08
2.41704e-08
2.41704e-08
2.41704e-08
2.41704e-08
2.41704e-08
2.41704e-08
2.41704e-08
2.41704e-08
2.41704e-08
2.41704e-08
2.41704e-08
2.41704e-08
2.41705e-08
2.41705e-08
2.41705e-08
2.41705e-08
2.41706e-08
2.41708e-08
2.41713e-08
2.4172e-08
2.4173e-08
2.41748e-08
2.41777e-08
2.41823e-08
2.41908e-08
2.42048e-08
2.42234e-08
2.42462e-08
2.42716e-08
2.42979e-08
2.43238e-08
2.43477e-08
2.43689e-08
2.43871e-08
2.44012e-08
2.44122e-08
2.44195e-08
2.44231e-08
2.44235e-08
2.44207e-08
2.44193e-08
2.4421e-08
2.44225e-08
2.4426e-08
2.4433e-08
2.44464e-08
2.44695e-08
2.46223e-08
2.41704e-08
2.41704e-08
2.41704e-08
2.41704e-08
2.41704e-08
2.41704e-08
2.41704e-08
2.41704e-08
2.41704e-08
2.41704e-08
2.41704e-08
2.41705e-08
2.41705e-08
2.41705e-08
2.41705e-08
2.41705e-08
2.41706e-08
2.41709e-08
2.41713e-08
2.41721e-08
2.41731e-08
2.4175e-08
2.41779e-08
2.41826e-08
2.41912e-08
2.42053e-08
2.4224e-08
2.42467e-08
2.42719e-08
2.42977e-08
2.43229e-08
2.43457e-08
2.43658e-08
2.43827e-08
2.43955e-08
2.4405e-08
2.44109e-08
2.44131e-08
2.4412e-08
2.44082e-08
2.44082e-08
2.44086e-08
2.44094e-08
2.44126e-08
2.44194e-08
2.44329e-08
2.44568e-08
2.4634e-08
2.41704e-08
2.41704e-08
2.41704e-08
2.41704e-08
2.41704e-08
2.41704e-08
2.41704e-08
2.41704e-08
2.41704e-08
2.41704e-08
2.41704e-08
2.41705e-08
2.41705e-08
2.41705e-08
2.41705e-08
2.41705e-08
2.41707e-08
2.41709e-08
2.41714e-08
2.41722e-08
2.41733e-08
2.41751e-08
2.41781e-08
2.41829e-08
2.41916e-08
2.42056e-08
2.42243e-08
2.42469e-08
2.42716e-08
2.42968e-08
2.43211e-08
2.43428e-08
2.43616e-08
2.43773e-08
2.43887e-08
2.43969e-08
2.44014e-08
2.44021e-08
2.43996e-08
2.43959e-08
2.43963e-08
2.43957e-08
2.4396e-08
2.43992e-08
2.44061e-08
2.44194e-08
2.44438e-08
2.46463e-08
2.41704e-08
2.41704e-08
2.41704e-08
2.41704e-08
2.41704e-08
2.41704e-08
2.41704e-08
2.41704e-08
2.41704e-08
2.41704e-08
2.41704e-08
2.41705e-08
2.41705e-08
2.41705e-08
2.41705e-08
2.41705e-08
2.41707e-08
2.41709e-08
2.41714e-08
2.41723e-08
2.41734e-08
2.41753e-08
2.41783e-08
2.41831e-08
2.41917e-08
2.42057e-08
2.42242e-08
2.42465e-08
2.42707e-08
2.42951e-08
2.43184e-08
2.43389e-08
2.43565e-08
2.43708e-08
2.43809e-08
2.43877e-08
2.43908e-08
2.43901e-08
2.43865e-08
2.43846e-08
2.43837e-08
2.43824e-08
2.43826e-08
2.43861e-08
2.43932e-08
2.44064e-08
2.44307e-08
2.46587e-08
2.41704e-08
2.41704e-08
2.41704e-08
2.41704e-08
2.41704e-08
2.41704e-08
2.41704e-08
2.41704e-08
2.41704e-08
2.41704e-08
2.41704e-08
2.41705e-08
2.41705e-08
2.41705e-08
2.41705e-08
2.41706e-08
2.41707e-08
2.4171e-08
2.41715e-08
2.41723e-08
2.41735e-08
2.41754e-08
2.41785e-08
2.41833e-08
2.41918e-08
2.42056e-08
2.42238e-08
2.42456e-08
2.42692e-08
2.42927e-08
2.43148e-08
2.43341e-08
2.43504e-08
2.43634e-08
2.43722e-08
2.43777e-08
2.43793e-08
2.43773e-08
2.43734e-08
2.43724e-08
2.43706e-08
2.4369e-08
2.43695e-08
2.43737e-08
2.43811e-08
2.43938e-08
2.44177e-08
2.46711e-08
2.41704e-08
2.41704e-08
2.41704e-08
2.41704e-08
2.41704e-08
2.41704e-08
2.41704e-08
2.41704e-08
2.41704e-08
2.41704e-08
2.41705e-08
2.41705e-08
2.41705e-08
2.41705e-08
2.41705e-08
2.41706e-08
2.41707e-08
2.4171e-08
2.41715e-08
2.41724e-08
2.41736e-08
2.41756e-08
2.41787e-08
2.41834e-08
2.41918e-08
2.42052e-08
2.4223e-08
2.42443e-08
2.4267e-08
2.42894e-08
2.43103e-08
2.43283e-08
2.43433e-08
2.4355e-08
2.43626e-08
2.43667e-08
2.4367e-08
2.43639e-08
2.43611e-08
2.43597e-08
2.43571e-08
2.43557e-08
2.4357e-08
2.43622e-08
2.43701e-08
2.43818e-08
2.44048e-08
2.46834e-08
2.41704e-08
2.41704e-08
2.41704e-08
2.41704e-08
2.41704e-08
2.41704e-08
2.41704e-08
2.41704e-08
2.41704e-08
2.41704e-08
2.41705e-08
2.41705e-08
2.41705e-08
2.41705e-08
2.41706e-08
2.41706e-08
2.41707e-08
2.4171e-08
2.41716e-08
2.41725e-08
2.41737e-08
2.41757e-08
2.41788e-08
2.41835e-08
2.41916e-08
2.42046e-08
2.42218e-08
2.42423e-08
2.42641e-08
2.42853e-08
2.43049e-08
2.43216e-08
2.43352e-08
2.43457e-08
2.43521e-08
2.43549e-08
2.43539e-08
2.43503e-08
2.43488e-08
2.43464e-08
2.43435e-08
2.43428e-08
2.43455e-08
2.4352e-08
2.43603e-08
2.43705e-08
2.43921e-08
2.46953e-08
2.41704e-08
2.41704e-08
2.41704e-08
2.41704e-08
2.41704e-08
2.41704e-08
2.41704e-08
2.41704e-08
2.41704e-08
2.41704e-08
2.41705e-08
2.41705e-08
2.41705e-08
2.41705e-08
2.41706e-08
2.41706e-08
2.41707e-08
2.4171e-08
2.41716e-08
2.41725e-08
2.41737e-08
2.41758e-08
2.41789e-08
2.41835e-08
2.41913e-08
2.42038e-08
2.42202e-08
2.42398e-08
2.42604e-08
2.42804e-08
2.42987e-08
2.43139e-08
2.43263e-08
2.43355e-08
2.43408e-08
2.43424e-08
2.43403e-08
2.43375e-08
2.43359e-08
2.43328e-08
2.43302e-08
2.43307e-08
2.43355e-08
2.43438e-08
2.43522e-08
2.43598e-08
2.43797e-08
2.47064e-08
2.41704e-08
2.41704e-08
2.41704e-08
2.41704e-08
2.41704e-08
2.41704e-08
2.41704e-08
2.41704e-08
2.41704e-08
2.41704e-08
2.41705e-08
2.41705e-08
2.41705e-08
2.41706e-08
2.41706e-08
2.41706e-08
2.41708e-08
2.4171e-08
2.41716e-08
2.41726e-08
2.41738e-08
2.41758e-08
2.41789e-08
2.41834e-08
2.41909e-08
2.42027e-08
2.42182e-08
2.42367e-08
2.42561e-08
2.42747e-08
2.42916e-08
2.43055e-08
2.43166e-08
2.43247e-08
2.43288e-08
2.43293e-08
2.43266e-08
2.43252e-08
2.43226e-08
2.43192e-08
2.43175e-08
2.43201e-08
2.43276e-08
2.43384e-08
2.43469e-08
2.43503e-08
2.43674e-08
2.47164e-08
2.41704e-08
2.41704e-08
2.41704e-08
2.41704e-08
2.41704e-08
2.41704e-08
2.41704e-08
2.41704e-08
2.41704e-08
2.41704e-08
2.41705e-08
2.41705e-08
2.41705e-08
2.41706e-08
2.41706e-08
2.41706e-08
2.41708e-08
2.41711e-08
2.41717e-08
2.41726e-08
2.41738e-08
2.41758e-08
2.41789e-08
2.41832e-08
2.41904e-08
2.42014e-08
2.42159e-08
2.42331e-08
2.42511e-08
2.42683e-08
2.42837e-08
2.42963e-08
2.43062e-08
2.43132e-08
2.43164e-08
2.43158e-08
2.43137e-08
2.43123e-08
2.43091e-08
2.43059e-08
2.43059e-08
2.43115e-08
2.43228e-08
2.43372e-08
2.43458e-08
2.43428e-08
2.43552e-08
2.47248e-08
2.41704e-08
2.41704e-08
2.41704e-08
2.41704e-08
2.41704e-08
2.41704e-08
2.41704e-08
2.41704e-08
2.41704e-08
2.41705e-08
2.41705e-08
2.41705e-08
2.41706e-08
2.41706e-08
2.41706e-08
2.41706e-08
2.41708e-08
2.41711e-08
2.41717e-08
2.41726e-08
2.41739e-08
2.41758e-08
2.41788e-08
2.4183e-08
2.41898e-08
2.42e-08
2.42132e-08
2.4229e-08
2.42455e-08
2.42612e-08
2.42752e-08
2.42864e-08
2.42953e-08
2.43012e-08
2.43035e-08
2.43025e-08
2.43015e-08
2.42992e-08
2.42957e-08
2.42936e-08
2.42962e-08
2.4306e-08
2.43227e-08
2.43415e-08
2.435e-08
2.43387e-08
2.43433e-08
2.47309e-08
2.41704e-08
2.41704e-08
2.41704e-08
2.41704e-08
2.41704e-08
2.41704e-08
2.41704e-08
2.41704e-08
2.41704e-08
2.41705e-08
2.41705e-08
2.41705e-08
2.41706e-08
2.41706e-08
2.41706e-08
2.41707e-08
2.41708e-08
2.41711e-08
2.41717e-08
2.41727e-08
2.41739e-08
2.41758e-08
2.41786e-08
2.41826e-08
2.4189e-08
2.41984e-08
2.42103e-08
2.42245e-08
2.42394e-08
2.42535e-08
2.42661e-08
2.42761e-08
2.42839e-08
2.42889e-08
2.42906e-08
2.429e-08
2.4289e-08
2.4286e-08
2.42828e-08
2.42828e-08
2.42892e-08
2.43049e-08
2.43285e-08
2.43502e-08
2.43565e-08
2.43388e-08
2.43322e-08
2.47338e-08
2.41704e-08
2.41704e-08
2.41704e-08
2.41704e-08
2.41704e-08
2.41704e-08
2.41704e-08
2.41704e-08
2.41704e-08
2.41705e-08
2.41705e-08
2.41705e-08
2.41706e-08
2.41706e-08
2.41706e-08
2.41707e-08
2.41708e-08
2.41711e-08
2.41717e-08
2.41727e-08
2.41739e-08
2.41757e-08
2.41785e-08
2.41822e-08
2.41881e-08
2.41967e-08
2.42072e-08
2.42197e-08
2.4233e-08
2.42455e-08
2.42567e-08
2.42655e-08
2.42723e-08
2.42766e-08
2.4278e-08
2.42781e-08
2.42762e-08
2.42731e-08
2.42712e-08
2.42743e-08
2.42861e-08
2.43095e-08
2.43391e-08
2.4363e-08
2.43662e-08
2.43398e-08
2.43219e-08
2.47329e-08
2.41704e-08
2.41704e-08
2.41704e-08
2.41704e-08
2.41704e-08
2.41704e-08
2.41704e-08
2.41704e-08
2.41704e-08
2.41705e-08
2.41705e-08
2.41705e-08
2.41706e-08
2.41706e-08
2.41707e-08
2.41707e-08
2.41708e-08
2.41711e-08
2.41717e-08
2.41727e-08
2.41738e-08
2.41756e-08
2.41782e-08
2.41817e-08
2.4187e-08
2.41948e-08
2.4204e-08
2.42148e-08
2.42264e-08
2.42374e-08
2.42472e-08
2.4255e-08
2.42609e-08
2.42647e-08
2.42664e-08
2.4266e-08
2.42637e-08
2.42612e-08
2.42616e-08
2.42694e-08
2.42883e-08
2.43198e-08
2.43545e-08
2.43807e-08
2.43802e-08
2.43435e-08
2.43126e-08
2.47273e-08
2.41704e-08
2.41704e-08
2.41704e-08
2.41704e-08
2.41704e-08
2.41704e-08
2.41704e-08
2.41704e-08
2.41704e-08
2.41705e-08
2.41705e-08
2.41706e-08
2.41706e-08
2.41706e-08
2.41707e-08
2.41707e-08
2.41708e-08
2.41711e-08
2.41717e-08
2.41726e-08
2.41738e-08
2.41755e-08
2.41779e-08
2.41811e-08
2.41858e-08
2.41927e-08
2.42007e-08
2.421e-08
2.422e-08
2.42297e-08
2.42382e-08
2.4245e-08
2.42503e-08
2.42537e-08
2.42551e-08
2.4254e-08
2.42518e-08
2.42509e-08
2.4255e-08
2.42691e-08
2.42969e-08
2.43347e-08
2.43754e-08
2.44044e-08
2.43994e-08
2.43515e-08
2.43047e-08
2.47175e-08
2.41704e-08
2.41704e-08
2.41704e-08
2.41704e-08
2.41704e-08
2.41704e-08
2.41704e-08
2.41704e-08
2.41704e-08
2.41705e-08
2.41705e-08
2.41706e-08
2.41706e-08
2.41706e-08
2.41707e-08
2.41707e-08
2.41708e-08
2.41711e-08
2.41717e-08
2.41726e-08
2.41737e-08
2.41753e-08
2.41776e-08
2.41804e-08
2.41846e-08
2.41905e-08
2.41975e-08
2.42055e-08
2.42143e-08
2.42229e-08
2.42303e-08
2.42362e-08
2.42405e-08
2.42431e-08
2.42437e-08
2.42423e-08
2.42411e-08
2.42432e-08
2.42527e-08
2.42746e-08
2.43099e-08
2.43551e-08
2.44024e-08
2.44336e-08
2.44242e-08
2.43642e-08
2.42993e-08
2.47039e-08
2.41704e-08
2.41704e-08
2.41704e-08
2.41704e-08
2.41704e-08
2.41704e-08
2.41704e-08
2.41704e-08
2.41705e-08
2.41705e-08
2.41705e-08
2.41706e-08
2.41706e-08
2.41707e-08
2.41707e-08
2.41707e-08
2.41708e-08
2.41711e-08
2.41717e-08
2.41725e-08
2.41736e-08
2.41751e-08
2.41772e-08
2.41797e-08
2.41832e-08
2.41883e-08
2.41944e-08
2.42016e-08
2.42092e-08
2.42164e-08
2.42225e-08
2.42274e-08
2.42308e-08
2.42325e-08
2.42326e-08
2.42313e-08
2.42324e-08
2.42394e-08
2.42558e-08
2.42854e-08
2.43279e-08
2.43811e-08
2.44341e-08
2.44665e-08
2.4453e-08
2.4381e-08
2.42976e-08
2.46857e-08
2.41704e-08
2.41704e-08
2.41704e-08
2.41704e-08
2.41704e-08
2.41704e-08
2.41704e-08
2.41704e-08
2.41705e-08
2.41705e-08
2.41705e-08
2.41706e-08
2.41706e-08
2.41707e-08
2.41707e-08
2.41707e-08
2.41708e-08
2.41711e-08
2.41716e-08
2.41725e-08
2.41734e-08
2.41749e-08
2.41767e-08
2.41789e-08
2.41818e-08
2.41861e-08
2.41915e-08
2.4198e-08
2.42042e-08
2.421e-08
2.42149e-08
2.42187e-08
2.42212e-08
2.42222e-08
2.4222e-08
2.42215e-08
2.42268e-08
2.42407e-08
2.42647e-08
2.43006e-08
2.4351e-08
2.44112e-08
2.44675e-08
2.44994e-08
2.44826e-08
2.44006e-08
2.43004e-08
2.46623e-08
2.41704e-08
2.41704e-08
2.41704e-08
2.41704e-08
2.41704e-08
2.41704e-08
2.41704e-08
2.41704e-08
2.41705e-08
2.41705e-08
2.41705e-08
2.41706e-08
2.41706e-08
2.41707e-08
2.41707e-08
2.41708e-08
2.41708e-08
2.4171e-08
2.41716e-08
2.41724e-08
2.41733e-08
2.41746e-08
2.41762e-08
2.41781e-08
2.41804e-08
2.4184e-08
2.4189e-08
2.41943e-08
2.41994e-08
2.42039e-08
2.42076e-08
2.42105e-08
2.42121e-08
2.42125e-08
2.4212e-08
2.42134e-08
2.42254e-08
2.42477e-08
2.42775e-08
2.43204e-08
2.43778e-08
2.44421e-08
2.44998e-08
2.45309e-08
2.45105e-08
2.44214e-08
2.43052e-08
2.46336e-08
2.41704e-08
2.41704e-08
2.41704e-08
2.41704e-08
2.41704e-08
2.41704e-08
2.41704e-08
2.41704e-08
2.41705e-08
2.41705e-08
2.41705e-08
2.41706e-08
2.41706e-08
2.41707e-08
2.41707e-08
2.41708e-08
2.41709e-08
2.4171e-08
2.41715e-08
2.41723e-08
2.41731e-08
2.41743e-08
2.41757e-08
2.41772e-08
2.4179e-08
2.41823e-08
2.41865e-08
2.41908e-08
2.41948e-08
2.41982e-08
2.42009e-08
2.42028e-08
2.42038e-08
2.42036e-08
2.42031e-08
2.42078e-08
2.42288e-08
2.42584e-08
2.42941e-08
2.43435e-08
2.44052e-08
2.44717e-08
2.45304e-08
2.45605e-08
2.45364e-08
2.44415e-08
2.4312e-08
2.45996e-08
2.41704e-08
2.41704e-08
2.41704e-08
2.41704e-08
2.41704e-08
2.41704e-08
2.41704e-08
2.41704e-08
2.41705e-08
2.41705e-08
2.41706e-08
2.41706e-08
2.41706e-08
2.41707e-08
2.41707e-08
2.41708e-08
2.41709e-08
2.4171e-08
2.41714e-08
2.41721e-08
2.41729e-08
2.41739e-08
2.41751e-08
2.41763e-08
2.41776e-08
2.41807e-08
2.41841e-08
2.41875e-08
2.41906e-08
2.41932e-08
2.41949e-08
2.41961e-08
2.41963e-08
2.41956e-08
2.41956e-08
2.42053e-08
2.4236e-08
2.42725e-08
2.43136e-08
2.43672e-08
2.44312e-08
2.44996e-08
2.4559e-08
2.45878e-08
2.45601e-08
2.44599e-08
2.43215e-08
2.4561e-08
2.41704e-08
2.41704e-08
2.41704e-08
2.41704e-08
2.41704e-08
2.41704e-08
2.41704e-08
2.41704e-08
2.41705e-08
2.41705e-08
2.41706e-08
2.41706e-08
2.41707e-08
2.41707e-08
2.41707e-08
2.41708e-08
2.41709e-08
2.4171e-08
2.41714e-08
2.4172e-08
2.41727e-08
2.41736e-08
2.41746e-08
2.41754e-08
2.41765e-08
2.41792e-08
2.41819e-08
2.41846e-08
2.41869e-08
2.41888e-08
2.41899e-08
2.41904e-08
2.419e-08
2.4189e-08
2.41897e-08
2.42062e-08
2.4246e-08
2.42887e-08
2.43334e-08
2.43894e-08
2.44555e-08
2.45255e-08
2.45853e-08
2.46125e-08
2.45811e-08
2.44762e-08
2.43331e-08
2.45194e-08
2.41705e-08
2.41704e-08
2.41704e-08
2.41704e-08
2.41704e-08
2.41704e-08
2.41704e-08
2.41704e-08
2.41705e-08
2.41705e-08
2.41706e-08
2.41706e-08
2.41707e-08
2.41707e-08
2.41707e-08
2.41708e-08
2.41709e-08
2.41709e-08
2.41713e-08
2.41719e-08
2.41725e-08
2.41732e-08
2.4174e-08
2.41746e-08
2.41756e-08
2.41779e-08
2.41802e-08
2.41823e-08
2.4184e-08
2.41853e-08
2.41859e-08
2.41859e-08
2.4185e-08
2.41839e-08
2.41859e-08
2.42095e-08
2.42577e-08
2.43048e-08
2.43516e-08
2.44096e-08
2.44777e-08
2.45488e-08
2.46086e-08
2.46342e-08
2.45992e-08
2.44904e-08
2.4346e-08
2.44769e-08
2.41705e-08
2.41704e-08
2.41704e-08
2.41704e-08
2.41704e-08
2.41704e-08
2.41704e-08
2.41705e-08
2.41705e-08
2.41705e-08
2.41706e-08
2.41706e-08
2.41707e-08
2.41707e-08
2.41707e-08
2.41708e-08
2.41708e-08
2.41709e-08
2.41712e-08
2.41717e-08
2.41722e-08
2.41728e-08
2.41734e-08
2.41738e-08
2.41749e-08
2.41769e-08
2.41788e-08
2.41806e-08
2.41819e-08
2.41829e-08
2.41832e-08
2.41828e-08
2.41815e-08
2.41809e-08
2.41846e-08
2.42141e-08
2.42693e-08
2.43191e-08
2.43678e-08
2.44277e-08
2.44973e-08
2.45693e-08
2.46287e-08
2.46524e-08
2.46141e-08
2.45024e-08
2.43602e-08
2.44369e-08
2.41705e-08
2.41704e-08
2.41704e-08
2.41704e-08
2.41704e-08
2.41704e-08
2.41704e-08
2.41705e-08
2.41705e-08
2.41705e-08
2.41706e-08
2.41706e-08
2.41707e-08
2.41707e-08
2.41708e-08
2.41708e-08
2.41708e-08
2.41709e-08
2.41711e-08
2.41715e-08
2.4172e-08
2.41724e-08
2.41728e-08
2.41731e-08
2.41744e-08
2.41762e-08
2.41778e-08
2.41793e-08
2.41804e-08
2.41812e-08
2.41814e-08
2.4181e-08
2.41798e-08
2.41805e-08
2.41858e-08
2.42191e-08
2.42791e-08
2.43312e-08
2.43816e-08
2.44431e-08
2.4514e-08
2.45864e-08
2.46452e-08
2.46668e-08
2.46255e-08
2.45119e-08
2.4375e-08
2.44041e-08
2.41705e-08
2.41704e-08
2.41704e-08
2.41704e-08
2.41704e-08
2.41704e-08
2.41704e-08
2.41705e-08
2.41705e-08
2.41705e-08
2.41706e-08
2.41706e-08
2.41707e-08
2.41707e-08
2.41708e-08
2.41708e-08
2.41708e-08
2.41709e-08
2.4171e-08
2.41714e-08
2.41717e-08
2.41721e-08
2.41723e-08
2.41725e-08
2.41741e-08
2.41757e-08
2.41771e-08
2.41784e-08
2.41794e-08
2.41801e-08
2.41804e-08
2.41802e-08
2.41796e-08
2.4183e-08
2.41899e-08
2.42228e-08
2.42866e-08
2.43406e-08
2.43927e-08
2.44556e-08
2.45274e-08
2.45999e-08
2.46575e-08
2.4677e-08
2.46331e-08
2.45189e-08
2.43898e-08
2.43844e-08
2.41705e-08
2.41704e-08
2.41704e-08
2.41704e-08
2.41704e-08
2.41704e-08
2.41704e-08
2.41705e-08
2.41705e-08
2.41705e-08
2.41706e-08
2.41706e-08
2.41707e-08
2.41707e-08
2.41708e-08
2.41708e-08
2.41708e-08
2.41708e-08
2.4171e-08
2.41712e-08
2.41715e-08
2.41717e-08
2.41719e-08
2.41723e-08
2.41739e-08
2.41754e-08
2.41766e-08
2.41779e-08
2.41788e-08
2.41796e-08
2.418e-08
2.41802e-08
2.4181e-08
2.41868e-08
2.41947e-08
2.42249e-08
2.42914e-08
2.43471e-08
2.44006e-08
2.44646e-08
2.45371e-08
2.46092e-08
2.46654e-08
2.46827e-08
2.46367e-08
2.45234e-08
2.4405e-08
2.4384e-08
2.41705e-08
2.41704e-08
2.41704e-08
2.41704e-08
2.41704e-08
2.41704e-08
2.41704e-08
2.41705e-08
2.41705e-08
2.41705e-08
2.41706e-08
2.41706e-08
2.41707e-08
2.41707e-08
2.41708e-08
2.41708e-08
2.41708e-08
2.41708e-08
2.41709e-08
2.41711e-08
2.41713e-08
2.41714e-08
2.41716e-08
2.41722e-08
2.41739e-08
2.41753e-08
2.41764e-08
2.41777e-08
2.41787e-08
2.41795e-08
2.41803e-08
2.41812e-08
2.41841e-08
2.41913e-08
2.41994e-08
2.42256e-08
2.42932e-08
2.43503e-08
2.44051e-08
2.447e-08
2.45427e-08
2.46141e-08
2.46686e-08
2.46836e-08
2.46362e-08
2.45253e-08
2.44202e-08
2.44049e-08
2.41705e-08
2.41704e-08
2.41704e-08
2.41704e-08
2.41704e-08
2.41704e-08
2.41704e-08
2.41705e-08
2.41705e-08
2.41705e-08
2.41706e-08
2.41706e-08
2.41707e-08
2.41707e-08
2.41708e-08
2.41708e-08
2.41708e-08
2.41708e-08
2.41708e-08
2.4171e-08
2.41711e-08
2.41712e-08
2.41714e-08
2.41723e-08
2.41741e-08
2.41754e-08
2.41765e-08
2.41776e-08
2.41786e-08
2.41798e-08
2.41813e-08
2.41832e-08
2.41872e-08
2.41959e-08
2.42043e-08
2.42257e-08
2.42917e-08
2.43498e-08
2.44057e-08
2.44713e-08
2.4544e-08
2.46141e-08
2.46665e-08
2.46794e-08
2.46313e-08
2.45245e-08
2.44349e-08
2.44354e-08
2.41705e-08
2.41704e-08
2.41704e-08
2.41704e-08
2.41704e-08
2.41704e-08
2.41704e-08
2.41705e-08
2.41705e-08
2.41705e-08
2.41706e-08
2.41706e-08
2.41707e-08
2.41707e-08
2.41708e-08
2.41708e-08
2.41708e-08
2.41708e-08
2.41708e-08
2.41709e-08
2.4171e-08
2.41711e-08
2.41716e-08
2.41725e-08
2.41744e-08
2.41756e-08
2.41764e-08
2.41774e-08
2.41786e-08
2.41808e-08
2.41829e-08
2.41855e-08
2.41906e-08
2.42005e-08
2.42097e-08
2.42277e-08
2.4287e-08
2.43456e-08
2.44023e-08
2.44681e-08
2.45405e-08
2.46091e-08
2.46591e-08
2.46699e-08
2.4622e-08
2.45211e-08
2.44488e-08
2.44797e-08
2.41705e-08
2.41704e-08
2.41704e-08
2.41704e-08
2.41704e-08
2.41704e-08
2.41705e-08
2.41705e-08
2.41705e-08
2.41705e-08
2.41706e-08
2.41706e-08
2.41707e-08
2.41707e-08
2.41708e-08
2.41708e-08
2.41708e-08
2.41708e-08
2.41708e-08
2.41708e-08
2.41709e-08
2.41712e-08
2.41718e-08
2.41729e-08
2.41747e-08
2.41757e-08
2.41763e-08
2.41772e-08
2.41792e-08
2.41819e-08
2.41847e-08
2.4188e-08
2.41945e-08
2.42053e-08
2.42161e-08
2.42297e-08
2.42795e-08
2.43374e-08
2.43945e-08
2.44603e-08
2.45321e-08
2.45987e-08
2.46461e-08
2.4655e-08
2.46082e-08
2.45147e-08
2.4461e-08
2.45274e-08
2.41705e-08
2.41704e-08
2.41704e-08
2.41704e-08
2.41704e-08
2.41704e-08
2.41705e-08
2.41705e-08
2.41705e-08
2.41705e-08
2.41706e-08
2.41706e-08
2.41707e-08
2.41707e-08
2.41708e-08
2.41708e-08
2.41708e-08
2.41708e-08
2.41708e-08
2.41708e-08
2.4171e-08
2.41713e-08
2.41722e-08
2.41733e-08
2.4175e-08
2.41758e-08
2.4176e-08
2.41772e-08
2.41799e-08
2.41833e-08
2.4187e-08
2.41914e-08
2.41987e-08
2.42107e-08
2.42231e-08
2.42318e-08
2.42704e-08
2.43254e-08
2.43822e-08
2.44477e-08
2.45185e-08
2.45829e-08
2.46274e-08
2.46345e-08
2.45897e-08
2.45052e-08
2.44705e-08
2.45679e-08
2.41705e-08
2.41704e-08
2.41704e-08
2.41704e-08
2.41704e-08
2.41704e-08
2.41705e-08
2.41705e-08
2.41705e-08
2.41705e-08
2.41706e-08
2.41706e-08
2.41707e-08
2.41707e-08
2.41707e-08
2.41708e-08
2.41708e-08
2.41708e-08
2.41708e-08
2.41709e-08
2.41711e-08
2.41716e-08
2.41725e-08
2.41737e-08
2.41753e-08
2.41758e-08
2.41757e-08
2.41774e-08
2.41807e-08
2.41851e-08
2.419e-08
2.41953e-08
2.42037e-08
2.4217e-08
2.42313e-08
2.42351e-08
2.42625e-08
2.43104e-08
2.43657e-08
2.44301e-08
2.44998e-08
2.45617e-08
2.4603e-08
2.46086e-08
2.45666e-08
2.44924e-08
2.4476e-08
2.45961e-08
2.41705e-08
2.41705e-08
2.41704e-08
2.41704e-08
2.41704e-08
2.41704e-08
2.41705e-08
2.41705e-08
2.41705e-08
2.41706e-08
2.41706e-08
2.41706e-08
2.41707e-08
2.41707e-08
2.41707e-08
2.41708e-08
2.41708e-08
2.41708e-08
2.41709e-08
2.4171e-08
2.41713e-08
2.41719e-08
2.41729e-08
2.4174e-08
2.41755e-08
2.41756e-08
2.41753e-08
2.41776e-08
2.41819e-08
2.41874e-08
2.41934e-08
2.42001e-08
2.42098e-08
2.42245e-08
2.42407e-08
2.42412e-08
2.42601e-08
2.4294e-08