/*--------------------------------*- C++ -*----------------------------------*\
| =========                 |                                                 |
| \\      /  F ield         | OpenFOAM: The Open Source CFD Toolbox           |
|  \\    /   O peration     | Version:  2406                                  |
|   \\  /    A nd           | Website:  www.openfoam.com                      |
|    \\/     M anipulation  |                                                 |
\*---------------------------------------------------------------------------*/
FoamFile
{
    version     2.0;
    format      ascii;
    arch        "LSB;label=32;scalar=64";
    class       volScalarField;
    location    "5";
    object      nuTilda;
}
// * * * * * * * * * * * * * * * * * * * * * * * * * * * * * * * * * * * * * //

dimensions      [0 2 -1 0 0 0 0];

internalField   nonuniform List<scalar> 
38016
(
8.675e-06
8.675e-06
8.675e-06
8.675e-06
8.675e-06
8.675e-06
8.675e-06
8.675e-06
8.675e-06
8.675e-06
8.675e-06
8.675e-06
8.675e-06
8.675e-06
8.67501e-06
8.67501e-06
8.67501e-06
8.67501e-06
8.67503e-06
8.67505e-06
8.67509e-06
8.67515e-06
8.67527e-06
8.67547e-06
8.67586e-06
8.67653e-06
8.67749e-06
8.67873e-06
8.68022e-06
8.68191e-06
8.6838e-06
8.68579e-06
8.68787e-06
8.69005e-06
8.69218e-06
8.69439e-06
8.69652e-06
8.69825e-06
8.69984e-06
8.70143e-06
8.70264e-06
8.70354e-06
8.7057e-06
8.70738e-06
8.70796e-06
8.70912e-06
8.71051e-06
8.71253e-06
8.675e-06
8.675e-06
8.675e-06
8.675e-06
8.675e-06
8.675e-06
8.675e-06
8.675e-06
8.675e-06
8.675e-06
8.675e-06
8.675e-06
8.67501e-06
8.67501e-06
8.67501e-06
8.67501e-06
8.67501e-06
8.67501e-06
8.67503e-06
8.67505e-06
8.67509e-06
8.67516e-06
8.67527e-06
8.67548e-06
8.67589e-06
8.67657e-06
8.67755e-06
8.67882e-06
8.68033e-06
8.68206e-06
8.68399e-06
8.68601e-06
8.68813e-06
8.69032e-06
8.69245e-06
8.69463e-06
8.69667e-06
8.69837e-06
8.69985e-06
8.7013e-06
8.70251e-06
8.70339e-06
8.70571e-06
8.70714e-06
8.70763e-06
8.70867e-06
8.70987e-06
8.71165e-06
8.675e-06
8.675e-06
8.675e-06
8.675e-06
8.675e-06
8.675e-06
8.675e-06
8.675e-06
8.675e-06
8.675e-06
8.675e-06
8.675e-06
8.67501e-06
8.67501e-06
8.67501e-06
8.67501e-06
8.67501e-06
8.67501e-06
8.67503e-06
8.67505e-06
8.67509e-06
8.67516e-06
8.67529e-06
8.67551e-06
8.67593e-06
8.67665e-06
8.67767e-06
8.67899e-06
8.68056e-06
8.68235e-06
8.68434e-06
8.68642e-06
8.68859e-06
8.69082e-06
8.69299e-06
8.6952e-06
8.6972e-06
8.69888e-06
8.7004e-06
8.70186e-06
8.70293e-06
8.70384e-06
8.70536e-06
8.70652e-06
8.7072e-06
8.70825e-06
8.70928e-06
8.71057e-06
8.675e-06
8.675e-06
8.675e-06
8.675e-06
8.675e-06
8.675e-06
8.675e-06
8.675e-06
8.675e-06
8.675e-06
8.675e-06
8.675e-06
8.67501e-06
8.67501e-06
8.67501e-06
8.67501e-06
8.67501e-06
8.67501e-06
8.67503e-06
8.67506e-06
8.6751e-06
8.67518e-06
8.67531e-06
8.67554e-06
8.67599e-06
8.67674e-06
8.67781e-06
8.67919e-06
8.68084e-06
8.68271e-06
8.68478e-06
8.68693e-06
8.68917e-06
8.69146e-06
8.69368e-06
8.6959e-06
8.69791e-06
8.6996e-06
8.70116e-06
8.70261e-06
8.70371e-06
8.70462e-06
8.70557e-06
8.70631e-06
8.70714e-06
8.70826e-06
8.70919e-06
8.70994e-06
8.675e-06
8.675e-06
8.675e-06
8.675e-06
8.675e-06
8.675e-06
8.675e-06
8.675e-06
8.675e-06
8.675e-06
8.675e-06
8.67501e-06
8.67501e-06
8.67501e-06
8.67501e-06
8.67501e-06
8.67501e-06
8.67502e-06
8.67503e-06
8.67506e-06
8.67511e-06
8.67519e-06
8.67533e-06
8.67557e-06
8.67605e-06
8.67684e-06
8.67796e-06
8.67941e-06
8.68113e-06
8.68308e-06
8.68523e-06
8.68746e-06
8.68976e-06
8.69209e-06
8.69433e-06
8.69655e-06
8.69855e-06
8.70022e-06
8.70177e-06
8.70319e-06
8.70423e-06
8.7051e-06
8.70598e-06
8.7066e-06
8.70727e-06
8.70844e-06
8.70933e-06
8.70964e-06
8.675e-06
8.675e-06
8.675e-06
8.675e-06
8.675e-06
8.675e-06
8.675e-06
8.675e-06
8.675e-06
8.675e-06
8.675e-06
8.67501e-06
8.67501e-06
8.67501e-06
8.67501e-06
8.67501e-06
8.67501e-06
8.67502e-06
8.67504e-06
8.67507e-06
8.67512e-06
8.6752e-06
8.67535e-06
8.67561e-06
8.67611e-06
8.67694e-06
8.67812e-06
8.67963e-06
8.68143e-06
8.68345e-06
8.68567e-06
8.68796e-06
8.6903e-06
8.69266e-06
8.69489e-06
8.69708e-06
8.69904e-06
8.70066e-06
8.70215e-06
8.70347e-06
8.70445e-06
8.70524e-06
8.706e-06
8.70661e-06
8.70737e-06
8.70856e-06
8.70944e-06
8.7094e-06
8.675e-06
8.675e-06
8.675e-06
8.675e-06
8.675e-06
8.675e-06
8.675e-06
8.675e-06
8.675e-06
8.675e-06
8.675e-06
8.67501e-06
8.67501e-06
8.67501e-06
8.67501e-06
8.67501e-06
8.67501e-06
8.67502e-06
8.67504e-06
8.67507e-06
8.67513e-06
8.67522e-06
8.67538e-06
8.67565e-06
8.67617e-06
8.67705e-06
8.67828e-06
8.67986e-06
8.68172e-06
8.68381e-06
8.68609e-06
8.68843e-06
8.69081e-06
8.69317e-06
8.69538e-06
8.69751e-06
8.6994e-06
8.70096e-06
8.70237e-06
8.70357e-06
8.70445e-06
8.70516e-06
8.7058e-06
8.70639e-06
8.70735e-06
8.70853e-06
8.70941e-06
8.70916e-06
8.675e-06
8.675e-06
8.675e-06
8.675e-06
8.675e-06
8.675e-06
8.675e-06
8.675e-06
8.675e-06
8.675e-06
8.675e-06
8.67501e-06
8.67501e-06
8.67501e-06
8.67501e-06
8.67501e-06
8.67501e-06
8.67502e-06
8.67504e-06
8.67508e-06
8.67513e-06
8.67523e-06
8.6754e-06
8.67569e-06
8.67624e-06
8.67716e-06
8.67844e-06
8.68008e-06
8.68202e-06
8.68417e-06
8.68651e-06
8.68889e-06
8.69128e-06
8.69363e-06
8.69581e-06
8.69787e-06
8.69968e-06
8.70115e-06
8.70247e-06
8.70355e-06
8.70433e-06
8.70493e-06
8.70546e-06
8.70605e-06
8.70716e-06
8.70832e-06
8.70923e-06
8.70897e-06
8.675e-06
8.675e-06
8.675e-06
8.675e-06
8.675e-06
8.675e-06
8.675e-06
8.675e-06
8.675e-06
8.675e-06
8.67501e-06
8.67501e-06
8.67501e-06
8.67501e-06
8.67501e-06
8.67501e-06
8.67501e-06
8.67502e-06
8.67505e-06
8.67509e-06
8.67514e-06
8.67525e-06
8.67542e-06
8.67573e-06
8.6763e-06
8.67726e-06
8.6786e-06
8.6803e-06
8.6823e-06
8.68452e-06
8.6869e-06
8.68931e-06
8.69171e-06
8.69404e-06
8.69617e-06
8.69815e-06
8.69987e-06
8.70125e-06
8.70246e-06
8.70341e-06
8.70408e-06
8.70458e-06
8.705e-06
8.70571e-06
8.70682e-06
8.70796e-06
8.70892e-06
8.70895e-06
8.675e-06
8.675e-06
8.675e-06
8.675e-06
8.675e-06
8.675e-06
8.675e-06
8.675e-06
8.675e-06
8.675e-06
8.67501e-06
8.67501e-06
8.67501e-06
8.67501e-06
8.67501e-06
8.67501e-06
8.67501e-06
8.67503e-06
8.67505e-06
8.67509e-06
8.67515e-06
8.67526e-06
8.67545e-06
8.67577e-06
8.67637e-06
8.67737e-06
8.67876e-06
8.68052e-06
8.68259e-06
8.68486e-06
8.68728e-06
8.68971e-06
8.6921e-06
8.69439e-06
8.69645e-06
8.69835e-06
8.69998e-06
8.70126e-06
8.70234e-06
8.70317e-06
8.70372e-06
8.7041e-06
8.70444e-06
8.70528e-06
8.70632e-06
8.70746e-06
8.70851e-06
8.70935e-06
8.675e-06
8.675e-06
8.675e-06
8.675e-06
8.675e-06
8.675e-06
8.675e-06
8.675e-06
8.675e-06
8.675e-06
8.67501e-06
8.67501e-06
8.67501e-06
8.67501e-06
8.67501e-06
8.67501e-06
8.67501e-06
8.67503e-06
8.67505e-06
8.6751e-06
8.67516e-06
8.67528e-06
8.67548e-06
8.67581e-06
8.67644e-06
8.67748e-06
8.67892e-06
8.68074e-06
8.68286e-06
8.68517e-06
8.68763e-06
8.69006e-06
8.69243e-06
8.69468e-06
8.69666e-06
8.69847e-06
8.69998e-06
8.70116e-06
8.70212e-06
8.70281e-06
8.70325e-06
8.70351e-06
8.70381e-06
8.70472e-06
8.70569e-06
8.70682e-06
8.70798e-06
8.70984e-06
8.675e-06
8.675e-06
8.675e-06
8.675e-06
8.675e-06
8.675e-06
8.675e-06
8.675e-06
8.675e-06
8.675e-06
8.67501e-06
8.67501e-06
8.67501e-06
8.67501e-06
8.67501e-06
8.67501e-06
8.67502e-06
8.67503e-06
8.67506e-06
8.67511e-06
8.67518e-06
8.6753e-06
8.6755e-06
8.67585e-06
8.6765e-06
8.67758e-06
8.67907e-06
8.68094e-06
8.68311e-06
8.68547e-06
8.68794e-06
8.69037e-06
8.69271e-06
8.69489e-06
8.69679e-06
8.69849e-06
8.6999e-06
8.70095e-06
8.70179e-06
8.70235e-06
8.70266e-06
8.7028e-06
8.70319e-06
8.70403e-06
8.70493e-06
8.70607e-06
8.70735e-06
8.7104e-06
8.675e-06
8.675e-06
8.675e-06
8.675e-06
8.675e-06
8.675e-06
8.675e-06
8.675e-06
8.675e-06
8.675e-06
8.67501e-06
8.67501e-06
8.67501e-06
8.67501e-06
8.67501e-06
8.67501e-06
8.67502e-06
8.67503e-06
8.67506e-06
8.67511e-06
8.67519e-06
8.67531e-06
8.67553e-06
8.67589e-06
8.67657e-06
8.67769e-06
8.67922e-06
8.68114e-06
8.68335e-06
8.68573e-06
8.68821e-06
8.69062e-06
8.69292e-06
8.69503e-06
8.69684e-06
8.69843e-06
8.69971e-06
8.70065e-06
8.70135e-06
8.70179e-06
8.70196e-06
8.70199e-06
8.70249e-06
8.70322e-06
8.70406e-06
8.7052e-06
8.70662e-06
8.71105e-06
8.675e-06
8.675e-06
8.675e-06
8.675e-06
8.675e-06
8.675e-06
8.675e-06
8.675e-06
8.675e-06
8.67501e-06
8.67501e-06
8.67501e-06
8.67501e-06
8.67501e-06
8.67501e-06
8.67501e-06
8.67502e-06
8.67504e-06
8.67507e-06
8.67512e-06
8.6752e-06
8.67533e-06
8.67556e-06
8.67593e-06
8.67663e-06
8.67779e-06
8.67936e-06
8.68132e-06
8.68356e-06
8.68596e-06
8.68844e-06
8.69082e-06
8.69305e-06
8.69508e-06
8.69679e-06
8.69826e-06
8.69943e-06
8.70024e-06
8.70082e-06
8.70112e-06
8.70115e-06
8.70114e-06
8.70168e-06
8.7023e-06
8.70308e-06
8.70424e-06
8.7058e-06
8.71178e-06
8.675e-06
8.675e-06
8.675e-06
8.675e-06
8.675e-06
8.675e-06
8.675e-06
8.675e-06
8.675e-06
8.67501e-06
8.67501e-06
8.67501e-06
8.67501e-06
8.67501e-06
8.67501e-06
8.67501e-06
8.67502e-06
8.67504e-06
8.67507e-06
8.67513e-06
8.67521e-06
8.67535e-06
8.67558e-06
8.67597e-06
8.67669e-06
8.67788e-06
8.67948e-06
8.68148e-06
8.68375e-06
8.68616e-06
8.68861e-06
8.69095e-06
8.69311e-06
8.69505e-06
8.69665e-06
8.69801e-06
8.69904e-06
8.69974e-06
8.70019e-06
8.70034e-06
8.70024e-06
8.70031e-06
8.70078e-06
8.7013e-06
8.70203e-06
8.70319e-06
8.70489e-06
8.71258e-06
8.675e-06
8.675e-06
8.675e-06
8.675e-06
8.675e-06
8.675e-06
8.675e-06
8.675e-06
8.675e-06
8.67501e-06
8.67501e-06
8.67501e-06
8.67501e-06
8.67501e-06
8.67501e-06
8.67501e-06
8.67502e-06
8.67504e-06
8.67508e-06
8.67514e-06
8.67522e-06
8.67537e-06
8.67561e-06
8.67601e-06
8.67675e-06
8.67796e-06
8.6796e-06
8.68162e-06
8.6839e-06
8.6863e-06
8.68873e-06
8.69101e-06
8.69309e-06
8.69493e-06
8.69643e-06
8.69766e-06
8.69856e-06
8.69913e-06
8.69945e-06
8.69946e-06
8.69926e-06
8.69944e-06
8.69978e-06
8.70022e-06
8.7009e-06
8.70208e-06
8.70391e-06
8.71345e-06
8.675e-06
8.675e-06
8.675e-06
8.675e-06
8.675e-06
8.675e-06
8.675e-06
8.675e-06
8.675e-06
8.67501e-06
8.67501e-06
8.67501e-06
8.67501e-06
8.67501e-06
8.67501e-06
8.67501e-06
8.67502e-06
8.67504e-06
8.67508e-06
8.67514e-06
8.67523e-06
8.67538e-06
8.67563e-06
8.67604e-06
8.6768e-06
8.67803e-06
8.67969e-06
8.68173e-06
8.68402e-06
8.6864e-06
8.68878e-06
8.69099e-06
8.69299e-06
8.69472e-06
8.6961e-06
8.69721e-06
8.69799e-06
8.69843e-06
8.69861e-06
8.69848e-06
8.69825e-06
8.69848e-06
8.69872e-06
8.69908e-06
8.69973e-06
8.70092e-06
8.70287e-06
8.71438e-06
8.675e-06
8.675e-06
8.675e-06
8.675e-06
8.675e-06
8.675e-06
8.675e-06
8.675e-06
8.67501e-06
8.67501e-06
8.67501e-06
8.67501e-06
8.67501e-06
8.67501e-06
8.67501e-06
8.67501e-06
8.67503e-06
8.67505e-06
8.67509e-06
8.67515e-06
8.67524e-06
8.6754e-06
8.67566e-06
8.67607e-06
8.67684e-06
8.67809e-06
8.67977e-06
8.68181e-06
8.68409e-06
8.68645e-06
8.68877e-06
8.6909e-06
8.6928e-06
8.69442e-06
8.69568e-06
8.69666e-06
8.69732e-06
8.69764e-06
8.69768e-06
8.69742e-06
8.6973e-06
8.69745e-06
8.69759e-06
8.6979e-06
8.69852e-06
8.69972e-06
8.70177e-06
8.71536e-06
8.675e-06
8.675e-06
8.675e-06
8.675e-06
8.675e-06
8.675e-06
8.675e-06
8.675e-06
8.67501e-06
8.67501e-06
8.67501e-06
8.67501e-06
8.67501e-06
8.67501e-06
8.67501e-06
8.67502e-06
8.67503e-06
8.67505e-06
8.67509e-06
8.67516e-06
8.67525e-06
8.67542e-06
8.67568e-06
8.6761e-06
8.67688e-06
8.67814e-06
8.67982e-06
8.68186e-06
8.68412e-06
8.68643e-06
8.68868e-06
8.69073e-06
8.69252e-06
8.69403e-06
8.69517e-06
8.69603e-06
8.69655e-06
8.69675e-06
8.69665e-06
8.69631e-06
8.69631e-06
8.69635e-06
8.69642e-06
8.6967e-06
8.69731e-06
8.69851e-06
8.70064e-06
8.7164e-06
8.675e-06
8.675e-06
8.675e-06
8.675e-06
8.675e-06
8.675e-06
8.675e-06
8.675e-06
8.67501e-06
8.67501e-06
8.67501e-06
8.67501e-06
8.67501e-06
8.67501e-06
8.67502e-06
8.67502e-06
8.67503e-06
8.67505e-06
8.67509e-06
8.67517e-06
8.67526e-06
8.67543e-06
8.6757e-06
8.67613e-06
8.67691e-06
8.67817e-06
8.67984e-06
8.68187e-06
8.68409e-06
8.68635e-06
8.68852e-06
8.69047e-06
8.69215e-06
8.69355e-06
8.69457e-06
8.6953e-06
8.6957e-06
8.69576e-06
8.69554e-06
8.69521e-06
8.69525e-06
8.69519e-06
8.69522e-06
8.6955e-06
8.69612e-06
8.69731e-06
8.69949e-06
8.71748e-06
8.67501e-06
8.675e-06
8.675e-06
8.675e-06
8.675e-06
8.675e-06
8.675e-06
8.675e-06
8.67501e-06
8.67501e-06
8.67501e-06
8.67501e-06
8.67501e-06
8.67501e-06
8.67502e-06
8.67502e-06
8.67503e-06
8.67505e-06
8.6751e-06
8.67517e-06
8.67527e-06
8.67545e-06
8.67572e-06
8.67615e-06
8.67692e-06
8.67818e-06
8.67984e-06
8.68184e-06
8.68401e-06
8.6862e-06
8.68828e-06
8.69012e-06
8.69169e-06
8.69297e-06
8.69387e-06
8.69448e-06
8.69476e-06
8.69469e-06
8.69438e-06
8.6942e-06
8.69412e-06
8.69401e-06
8.69403e-06
8.69434e-06
8.69497e-06
8.69614e-06
8.69832e-06
8.71858e-06
8.67501e-06
8.675e-06
8.675e-06
8.675e-06
8.675e-06
8.675e-06
8.675e-06
8.675e-06
8.67501e-06
8.67501e-06
8.67501e-06
8.67501e-06
8.67501e-06
8.67502e-06
8.67502e-06
8.67502e-06
8.67503e-06
8.67506e-06
8.6751e-06
8.67518e-06
8.67528e-06
8.67546e-06
8.67574e-06
8.67616e-06
8.67693e-06
8.67817e-06
8.6798e-06
8.68176e-06
8.68388e-06
8.68598e-06
8.68796e-06
8.68969e-06
8.69114e-06
8.6923e-06
8.69309e-06
8.69358e-06
8.69373e-06
8.69355e-06
8.6932e-06
8.69312e-06
8.69295e-06
8.69281e-06
8.69285e-06
8.69323e-06
8.69389e-06
8.69502e-06
8.69716e-06
8.71968e-06
8.67501e-06
8.675e-06
8.675e-06
8.675e-06
8.675e-06
8.675e-06
8.675e-06
8.67501e-06
8.67501e-06
8.67501e-06
8.67501e-06
8.67501e-06
8.67501e-06
8.67502e-06
8.67502e-06
8.67502e-06
8.67503e-06
8.67506e-06
8.67511e-06
8.67519e-06
8.67529e-06
8.67547e-06
8.67575e-06
8.67617e-06
8.67693e-06
8.67814e-06
8.67973e-06
8.68164e-06
8.68368e-06
8.68569e-06
8.68756e-06
8.68917e-06
8.69051e-06
8.69155e-06
8.69223e-06
8.6926e-06
8.69263e-06
8.69235e-06
8.6921e-06
8.69197e-06
8.69175e-06
8.69162e-06
8.69174e-06
8.6922e-06
8.6929e-06
8.69396e-06
8.69601e-06
8.72077e-06
8.67501e-06
8.675e-06
8.675e-06
8.675e-06
8.675e-06
8.675e-06
8.675e-06
8.67501e-06
8.67501e-06
8.67501e-06
8.67501e-06
8.67501e-06
8.67502e-06
8.67502e-06
8.67502e-06
8.67502e-06
8.67503e-06
8.67506e-06
8.67511e-06
8.67519e-06
8.6753e-06
8.67548e-06
8.67576e-06
8.67618e-06
8.67691e-06
8.67808e-06
8.67963e-06
8.68146e-06
8.68342e-06
8.68532e-06
8.68708e-06
8.68857e-06
8.68979e-06
8.69072e-06
8.69129e-06
8.69155e-06
8.69146e-06
8.69114e-06
8.691e-06
8.69078e-06
8.69053e-06
8.69046e-06
8.69071e-06
8.69129e-06
8.69203e-06
8.69294e-06
8.69488e-06
8.72182e-06
8.67501e-06
8.675e-06
8.675e-06
8.675e-06
8.675e-06
8.675e-06
8.675e-06
8.67501e-06
8.67501e-06
8.67501e-06
8.67501e-06
8.67501e-06
8.67502e-06
8.67502e-06
8.67502e-06
8.67502e-06
8.67504e-06
8.67506e-06
8.67511e-06
8.6752e-06
8.67531e-06
8.67549e-06
8.67577e-06
8.67618e-06
8.67689e-06
8.67801e-06
8.67948e-06
8.68124e-06
8.68309e-06
8.68488e-06
8.68652e-06
8.68788e-06
8.68899e-06
8.68982e-06
8.69029e-06
8.69043e-06
8.69024e-06
8.68999e-06
8.68985e-06
8.68957e-06
8.68934e-06
8.68939e-06
8.68981e-06
8.69055e-06
8.69131e-06
8.69199e-06
8.69376e-06
8.72281e-06
8.67501e-06
8.675e-06
8.675e-06
8.675e-06
8.675e-06
8.675e-06
8.675e-06
8.67501e-06
8.67501e-06
8.67501e-06
8.67501e-06
8.67501e-06
8.67502e-06
8.67502e-06
8.67502e-06
8.67502e-06
8.67504e-06
8.67506e-06
8.67512e-06
8.6752e-06
8.67531e-06
8.67549e-06
8.67577e-06
8.67617e-06
8.67685e-06
8.67791e-06
8.6793e-06
8.68096e-06
8.6827e-06
8.68437e-06
8.68588e-06
8.68713e-06
8.68812e-06
8.68884e-06
8.68922e-06
8.68926e-06
8.68902e-06
8.68889e-06
8.68866e-06
8.68835e-06
8.6882e-06
8.68844e-06
8.6891e-06
8.69007e-06
8.69083e-06
8.69113e-06
8.69266e-06
8.72369e-06
8.67501e-06
8.675e-06
8.675e-06
8.675e-06
8.675e-06
8.675e-06
8.67501e-06
8.67501e-06
8.67501e-06
8.67501e-06
8.67501e-06
8.67502e-06
8.67502e-06
8.67502e-06
8.67502e-06
8.67503e-06
8.67504e-06
8.67507e-06
8.67512e-06
8.67521e-06
8.67532e-06
8.67549e-06
8.67577e-06
8.67616e-06
8.67681e-06
8.6778e-06
8.67909e-06
8.68064e-06
8.68225e-06
8.68379e-06
8.68518e-06
8.6863e-06
8.68719e-06
8.68782e-06
8.6881e-06
8.68805e-06
8.68787e-06
8.68774e-06
8.68745e-06
8.68717e-06
8.68716e-06
8.68767e-06
8.68868e-06
8.68996e-06
8.69074e-06
8.69047e-06
8.69157e-06
8.72443e-06
8.67501e-06
8.675e-06
8.675e-06
8.675e-06
8.675e-06
8.675e-06
8.67501e-06
8.67501e-06
8.67501e-06
8.67501e-06
8.67501e-06
8.67502e-06
8.67502e-06
8.67502e-06
8.67503e-06
8.67503e-06
8.67504e-06
8.67507e-06
8.67512e-06
8.67521e-06
8.67532e-06
8.67549e-06
8.67576e-06
8.67614e-06
8.67675e-06
8.67767e-06
8.67885e-06
8.68027e-06
8.68175e-06
8.68316e-06
8.68441e-06
8.68542e-06
8.68621e-06
8.68674e-06
8.68695e-06
8.68686e-06
8.68677e-06
8.68656e-06
8.68625e-06
8.68606e-06
8.68629e-06
8.68717e-06
8.68867e-06
8.69035e-06
8.69111e-06
8.6901e-06
8.69051e-06
8.72497e-06
8.67501e-06
8.675e-06
8.675e-06
8.675e-06
8.675e-06
8.675e-06
8.67501e-06
8.67501e-06
8.67501e-06
8.67501e-06
8.67501e-06
8.67502e-06
8.67502e-06
8.67502e-06
8.67503e-06
8.67503e-06
8.67504e-06
8.67507e-06
8.67512e-06
8.67521e-06
8.67532e-06
8.67549e-06
8.67575e-06
8.67611e-06
8.67668e-06
8.67752e-06
8.67859e-06
8.67986e-06
8.68121e-06
8.68247e-06
8.6836e-06
8.6845e-06
8.68519e-06
8.68564e-06
8.68579e-06
8.68574e-06
8.68565e-06
8.68538e-06
8.6851e-06
8.68509e-06
8.68566e-06
8.68707e-06
8.68919e-06
8.69113e-06
8.69169e-06
8.69011e-06
8.68952e-06
8.72523e-06
8.67501e-06
8.675e-06
8.675e-06
8.675e-06
8.675e-06
8.675e-06
8.67501e-06
8.67501e-06
8.67501e-06
8.67501e-06
8.67501e-06
8.67502e-06
8.67502e-06
8.67502e-06
8.67503e-06
8.67503e-06
8.67504e-06
8.67507e-06
8.67512e-06
8.67521e-06
8.67532e-06
8.67548e-06
8.67573e-06
8.67607e-06
8.6766e-06
8.67737e-06
8.67831e-06
8.67944e-06
8.68063e-06
8.68175e-06
8.68276e-06
8.68355e-06
8.68415e-06
8.68454e-06
8.68466e-06
8.68467e-06
8.68451e-06
8.68423e-06
8.68406e-06
8.68434e-06
8.68539e-06
8.68749e-06
8.69014e-06
8.69227e-06
8.69256e-06
8.6902e-06
8.6886e-06
8.72515e-06
8.67501e-06
8.675e-06
8.675e-06
8.675e-06
8.675e-06
8.675e-06
8.67501e-06
8.67501e-06
8.67501e-06
8.67501e-06
8.67502e-06
8.67502e-06
8.67502e-06
8.67503e-06
8.67503e-06
8.67503e-06
8.67504e-06
8.67507e-06
8.67512e-06
8.67521e-06
8.67531e-06
8.67548e-06
8.67571e-06
8.67602e-06
8.6765e-06
8.6772e-06
8.67802e-06
8.679e-06
8.68004e-06
8.68103e-06
8.68191e-06
8.6826e-06
8.68314e-06
8.68347e-06
8.68363e-06
8.68359e-06
8.68338e-06
8.68316e-06
8.68319e-06
8.68389e-06
8.68559e-06
8.6884e-06
8.69151e-06
8.69386e-06
8.69381e-06
8.69053e-06
8.68777e-06
8.72466e-06
8.67501e-06
8.67501e-06
8.675e-06
8.675e-06
8.675e-06
8.675e-06
8.67501e-06
8.67501e-06
8.67501e-06
8.67501e-06
8.67502e-06
8.67502e-06
8.67502e-06
8.67503e-06
8.67503e-06
8.67503e-06
8.67504e-06
8.67507e-06
8.67512e-06
8.67521e-06
8.67531e-06
8.67546e-06
8.67568e-06
8.67597e-06
8.67639e-06
8.67701e-06
8.67773e-06
8.67856e-06
8.67946e-06
8.68033e-06
8.68109e-06
8.68171e-06
8.68218e-06
8.68249e-06
8.68261e-06
8.68251e-06
8.68231e-06
8.68223e-06
8.6826e-06
8.68387e-06
8.68636e-06
8.68974e-06
8.69338e-06
8.69597e-06
8.69553e-06
8.69124e-06
8.68705e-06
8.72379e-06
8.67501e-06
8.67501e-06
8.675e-06
8.675e-06
8.675e-06
8.67501e-06
8.67501e-06
8.67501e-06
8.67501e-06
8.67501e-06
8.67502e-06
8.67502e-06
8.67502e-06
8.67503e-06
8.67503e-06
8.67503e-06
8.67504e-06
8.67507e-06
8.67512e-06
8.6752e-06
8.6753e-06
8.67545e-06
8.67565e-06
8.67591e-06
8.67628e-06
8.67682e-06
8.67744e-06
8.67816e-06
8.67895e-06
8.67972e-06
8.68039e-06
8.68092e-06
8.6813e-06
8.68153e-06
8.68159e-06
8.68146e-06
8.68135e-06
8.68154e-06
8.68239e-06
8.68436e-06
8.68752e-06
8.69157e-06
8.69579e-06
8.69858e-06
8.69774e-06
8.69238e-06
8.68657e-06
8.72259e-06
8.67501e-06
8.67501e-06
8.675e-06
8.675e-06
8.675e-06
8.67501e-06
8.67501e-06
8.67501e-06
8.67501e-06
8.67501e-06
8.67502e-06
8.67502e-06
8.67502e-06
8.67503e-06
8.67503e-06
8.67504e-06
8.67504e-06
8.67507e-06
8.67512e-06
8.6752e-06
8.67529e-06
8.67543e-06
8.67561e-06
8.67584e-06
8.67616e-06
8.67661e-06
8.67716e-06
8.67781e-06
8.6785e-06
8.67914e-06
8.67969e-06
8.68013e-06
8.68043e-06
8.68058e-06
8.6806e-06
8.68048e-06
8.68058e-06
8.6812e-06
8.68268e-06
8.68533e-06
8.68914e-06
8.69389e-06
8.69862e-06
8.70151e-06
8.7003e-06
8.69388e-06
8.68642e-06
8.72097e-06
8.67501e-06
8.67501e-06
8.675e-06
8.675e-06
8.675e-06
8.67501e-06
8.67501e-06
8.67501e-06
8.67501e-06
8.67501e-06
8.67502e-06
8.67502e-06
8.67503e-06
8.67503e-06
8.67503e-06
8.67504e-06
8.67505e-06
8.67506e-06
8.67511e-06
8.67519e-06
8.67528e-06
8.67541e-06
8.67557e-06
8.67577e-06
8.67603e-06
8.67642e-06
8.6769e-06
8.67748e-06
8.67805e-06
8.67856e-06
8.679e-06
8.67935e-06
8.67957e-06
8.67966e-06
8.67964e-06
8.67959e-06
8.68007e-06
8.68132e-06
8.68347e-06
8.68669e-06
8.6912e-06
8.69658e-06
8.7016e-06
8.70444e-06
8.70294e-06
8.69563e-06
8.68667e-06
8.71891e-06
8.67501e-06
8.67501e-06
8.67501e-06
8.67501e-06
8.675e-06
8.67501e-06
8.67501e-06
8.67501e-06
8.67501e-06
8.67501e-06
8.67502e-06
8.67502e-06
8.67503e-06
8.67503e-06
8.67503e-06
8.67504e-06
8.67505e-06
8.67506e-06
8.67511e-06
8.67518e-06
8.67526e-06
8.67538e-06
8.67553e-06
8.67569e-06
8.6759e-06
8.67623e-06
8.67668e-06
8.67716e-06
8.67761e-06
8.67802e-06
8.67835e-06
8.67861e-06
8.67876e-06
8.67879e-06
8.67875e-06
8.67887e-06
8.67994e-06
8.68195e-06
8.68462e-06
8.68846e-06
8.69359e-06
8.69933e-06
8.70447e-06
8.70724e-06
8.70542e-06
8.69749e-06
8.6871e-06
8.71636e-06
8.67501e-06
8.67501e-06
8.67501e-06
8.67501e-06
8.67501e-06
8.67501e-06
8.67501e-06
8.67501e-06
8.67501e-06
8.67501e-06
8.67502e-06
8.67502e-06
8.67503e-06
8.67503e-06
8.67504e-06
8.67504e-06
8.67505e-06
8.67506e-06
8.67511e-06
8.67517e-06
8.67525e-06
8.67535e-06
8.67548e-06
8.67562e-06
8.67578e-06
8.67607e-06
8.67645e-06
8.67684e-06
8.6772e-06
8.67751e-06
8.67774e-06
8.67792e-06
8.67801e-06
8.67799e-06
8.67795e-06
8.67836e-06
8.68025e-06
8.68291e-06
8.68611e-06
8.69053e-06
8.69604e-06
8.70197e-06
8.7072e-06
8.70987e-06
8.70773e-06
8.69928e-06
8.68771e-06
8.71334e-06
8.67501e-06
8.67501e-06
8.67501e-06
8.67501e-06
8.67501e-06
8.67501e-06
8.67501e-06
8.67501e-06
8.67501e-06
8.67502e-06
8.67502e-06
8.67502e-06
8.67503e-06
8.67503e-06
8.67504e-06
8.67504e-06
8.67505e-06
8.67506e-06
8.6751e-06
8.67516e-06
8.67523e-06
8.67532e-06
8.67543e-06
8.67554e-06
8.67566e-06
8.67593e-06
8.67624e-06
8.67654e-06
8.67682e-06
8.67705e-06
8.67721e-06
8.67731e-06
8.67734e-06
8.67727e-06
8.67727e-06
8.67814e-06
8.6809e-06
8.68417e-06
8.68785e-06
8.69265e-06
8.69837e-06
8.70446e-06
8.70974e-06
8.7123e-06
8.70983e-06
8.70092e-06
8.68856e-06
8.70992e-06
8.67501e-06
8.67501e-06
8.67501e-06
8.67501e-06
8.67501e-06
8.67501e-06
8.67501e-06
8.67501e-06
8.67501e-06
8.67502e-06
8.67502e-06
8.67502e-06
8.67503e-06
8.67503e-06
8.67504e-06
8.67504e-06
8.67505e-06
8.67506e-06
8.67509e-06
8.67515e-06
8.67521e-06
8.67529e-06
8.67538e-06
8.67546e-06
8.67556e-06
8.6758e-06
8.67604e-06
8.67628e-06
8.67649e-06
8.67666e-06
8.67676e-06
8.6768e-06
8.67677e-06
8.67668e-06
8.67674e-06
8.67823e-06
8.68179e-06
8.68563e-06
8.68962e-06
8.69463e-06
8.70053e-06
8.70676e-06
8.71207e-06
8.71449e-06
8.7117e-06
8.70238e-06
8.6896e-06
8.70622e-06
8.67501e-06
8.67501e-06
8.67501e-06
8.67501e-06
8.67501e-06
8.67501e-06
8.67501e-06
8.67501e-06
8.67501e-06
8.67502e-06
8.67502e-06
8.67502e-06
8.67503e-06
8.67503e-06
8.67504e-06
8.67504e-06
8.67505e-06
8.67505e-06
8.67509e-06
8.67514e-06
8.67519e-06
8.67526e-06
8.67533e-06
8.67538e-06
8.67548e-06
8.67568e-06
8.67588e-06
8.67607e-06
8.67623e-06
8.67635e-06
8.6764e-06
8.6764e-06
8.67632e-06
8.67622e-06
8.6764e-06
8.67852e-06
8.68285e-06
8.68707e-06
8.69126e-06
8.69644e-06
8.7025e-06
8.70884e-06
8.71415e-06
8.71641e-06
8.71331e-06
8.70364e-06
8.69075e-06
8.70244e-06
8.67501e-06
8.67501e-06
8.67501e-06
8.67501e-06
8.67501e-06
8.67501e-06
8.67501e-06
8.67501e-06
8.67501e-06
8.67502e-06
8.67502e-06
8.67502e-06
8.67503e-06
8.67503e-06
8.67504e-06
8.67504e-06
8.67505e-06
8.67505e-06
8.67508e-06
8.67512e-06
8.67517e-06
8.67522e-06
8.67528e-06
8.67531e-06
8.67541e-06
8.67559e-06
8.67576e-06
8.67592e-06
8.67604e-06
8.67613e-06
8.67615e-06
8.67612e-06
8.67601e-06
8.67595e-06
8.67628e-06
8.67893e-06
8.68388e-06
8.68835e-06
8.6927e-06
8.69805e-06
8.70425e-06
8.71065e-06
8.71593e-06
8.71802e-06
8.71463e-06
8.7047e-06
8.69202e-06
8.69887e-06
8.67501e-06
8.67501e-06
8.67501e-06
8.67501e-06
8.67501e-06
8.67501e-06
8.67501e-06
8.67501e-06
8.67501e-06
8.67502e-06
8.67502e-06
8.67502e-06
8.67503e-06
8.67503e-06
8.67504e-06
8.67504e-06
8.67504e-06
8.67505e-06
8.67507e-06
8.67511e-06
8.67515e-06
8.67519e-06
8.67522e-06
8.67524e-06
8.67537e-06
8.67553e-06
8.67567e-06
8.67581e-06
8.6759e-06
8.67597e-06
8.676e-06
8.67596e-06
8.67585e-06
8.67592e-06
8.67639e-06
8.67938e-06
8.68476e-06
8.68943e-06
8.69394e-06
8.69942e-06
8.70574e-06
8.71218e-06
8.71739e-06
8.7193e-06
8.71564e-06
8.70555e-06
8.69335e-06
8.69594e-06
8.67501e-06
8.67501e-06
8.67501e-06
8.67501e-06
8.67501e-06
8.67501e-06
8.67501e-06
8.67501e-06
8.67501e-06
8.67502e-06
8.67502e-06
8.67503e-06
8.67503e-06
8.67503e-06
8.67504e-06
8.67504e-06
8.67504e-06
8.67505e-06
8.67506e-06
8.67509e-06
8.67513e-06
8.67516e-06
8.67518e-06
8.6752e-06
8.67534e-06
8.67548e-06
8.6756e-06
8.67573e-06
8.67581e-06
8.67588e-06
8.6759e-06
8.67588e-06
8.67584e-06
8.67614e-06
8.67676e-06
8.67972e-06
8.68544e-06
8.69027e-06
8.69493e-06
8.70053e-06
8.70693e-06
8.71337e-06
8.71848e-06
8.7202e-06
8.71631e-06
8.70617e-06
8.69467e-06
8.69418e-06
8.67501e-06
8.67501e-06
8.67501e-06
8.67501e-06
8.67501e-06
8.67501e-06
8.67501e-06
8.67501e-06
8.67501e-06
8.67502e-06
8.67502e-06
8.67503e-06
8.67503e-06
8.67503e-06
8.67504e-06
8.67504e-06
8.67504e-06
8.67505e-06
8.67506e-06
8.67508e-06
8.6751e-06
8.67512e-06
8.67514e-06
8.67517e-06
8.67532e-06
8.67545e-06
8.67556e-06
8.67568e-06
8.67576e-06
8.67583e-06
8.67587e-06
8.67589e-06
8.67596e-06
8.67648e-06
8.67719e-06
8.6799e-06
8.68587e-06
8.69085e-06
8.69563e-06
8.70134e-06
8.70779e-06
8.7142e-06
8.71918e-06
8.72071e-06
8.71663e-06
8.70657e-06
8.69602e-06
8.69415e-06
8.67501e-06
8.67501e-06
8.67501e-06
8.67501e-06
8.67501e-06
8.67501e-06
8.67501e-06
8.67501e-06
8.67501e-06
8.67502e-06
8.67502e-06
8.67503e-06
8.67503e-06
8.67503e-06
8.67504e-06
8.67504e-06
8.67504e-06
8.67504e-06
8.67505e-06
8.67507e-06
8.67508e-06
8.6751e-06
8.67511e-06
8.67517e-06
8.67532e-06
8.67544e-06
8.67555e-06
8.67566e-06
8.67575e-06
8.67583e-06
8.6759e-06
8.67597e-06
8.67623e-06
8.67688e-06
8.67761e-06
8.67996e-06
8.68602e-06
8.69114e-06
8.69603e-06
8.70182e-06
8.70829e-06
8.71463e-06
8.71946e-06
8.72079e-06
8.71659e-06
8.70674e-06
8.69738e-06
8.69602e-06
8.67501e-06
8.67501e-06
8.67501e-06
8.67501e-06
8.67501e-06
8.67501e-06
8.67501e-06
8.67501e-06
8.67501e-06
8.67502e-06
8.67502e-06
8.67503e-06
8.67503e-06
8.67503e-06
8.67504e-06
8.67504e-06
8.67504e-06
8.67504e-06
8.67505e-06
8.67506e-06
8.67507e-06
8.67508e-06
8.6751e-06
8.67518e-06
8.67534e-06
8.67545e-06
8.67555e-06
8.67565e-06
8.67574e-06
8.67585e-06
8.67598e-06
8.67616e-06
8.67652e-06
8.6773e-06
8.67805e-06
8.67998e-06
8.68589e-06
8.6911e-06
8.69609e-06
8.70193e-06
8.7084e-06
8.71463e-06
8.71927e-06
8.72041e-06
8.71616e-06
8.70668e-06
8.69869e-06
8.69874e-06
8.67501e-06
8.67501e-06
8.67501e-06
8.67501e-06
8.67501e-06
8.67501e-06
8.67501e-06
8.67501e-06
8.67501e-06
8.67502e-06
8.67502e-06
8.67503e-06
8.67503e-06
8.67503e-06
8.67504e-06
8.67504e-06
8.67504e-06
8.67504e-06
8.67504e-06
8.67505e-06
8.67506e-06
8.67507e-06
8.67511e-06
8.6752e-06
8.67536e-06
8.67547e-06
8.67555e-06
8.67563e-06
8.67575e-06
8.67594e-06
8.67613e-06
8.67636e-06
8.67682e-06
8.67771e-06
8.67854e-06
8.68015e-06
8.68547e-06
8.69071e-06
8.69578e-06
8.70165e-06
8.70809e-06
8.71418e-06
8.71862e-06
8.71957e-06
8.71533e-06
8.70636e-06
8.69993e-06
8.70268e-06
8.67501e-06
8.67501e-06
8.67501e-06
8.67501e-06
8.67501e-06
8.67501e-06
8.67501e-06
8.67501e-06
8.67501e-06
8.67502e-06
8.67502e-06
8.67503e-06
8.67503e-06
8.67503e-06
8.67504e-06
8.67504e-06
8.67504e-06
8.67504e-06
8.67504e-06
8.67504e-06
8.67505e-06
8.67507e-06
8.67513e-06
8.67523e-06
8.67539e-06
8.67549e-06
8.67554e-06
8.67562e-06
8.6758e-06
8.67604e-06
8.67629e-06
8.67659e-06
8.67717e-06
8.67814e-06
8.67911e-06
8.68034e-06
8.6848e-06
8.68998e-06
8.69508e-06
8.70096e-06
8.70735e-06
8.71327e-06
8.71746e-06
8.71825e-06
8.71411e-06
8.7058e-06
8.70102e-06
8.70693e-06
8.67501e-06
8.67501e-06
8.67501e-06
8.67501e-06
8.67501e-06
8.67501e-06
8.67501e-06
8.67501e-06
8.67502e-06
8.67502e-06
8.67502e-06
8.67503e-06
8.67503e-06
8.67503e-06
8.67504e-06
8.67504e-06
8.67504e-06
8.67504e-06
8.67504e-06
8.67504e-06
8.67506e-06
8.67509e-06
8.67516e-06
8.67526e-06
8.67542e-06
8.67549e-06
8.67551e-06
8.67561e-06
8.67586e-06
8.67616e-06
8.6765e-06
8.67689e-06
8.67755e-06
8.67863e-06
8.67974e-06
8.68052e-06
8.68398e-06
8.68891e-06
8.69399e-06
8.69983e-06
8.70614e-06
8.71186e-06
8.71581e-06
8.71644e-06
8.71247e-06
8.70496e-06
8.70186e-06
8.71053e-06
8.67501e-06
8.67501e-06
8.67501e-06
8.67501e-06
8.67501e-06
8.67501e-06
8.67501e-06
8.67501e-06
8.67502e-06
8.67502e-06
8.67502e-06
8.67503e-06
8.67503e-06
8.67503e-06
8.67504e-06
8.67504e-06
8.67504e-06
8.67504e-06
8.67504e-06
8.67505e-06
8.67507e-06
8.67512e-06
8.6752e-06
8.6753e-06
8.67545e-06
8.67549e-06
8.67548e-06
8.67563e-06
8.67593e-06
8.67633e-06
8.67677e-06
8.67725e-06
8.678e-06
8.67919e-06
8.68047e-06
8.68082e-06
8.68327e-06
8.68757e-06
8.69251e-06
8.69826e-06
8.70447e-06
8.70998e-06
8.71365e-06
8.71414e-06
8.71042e-06
8.70382e-06
8.70236e-06
8.71303e-06
8.67501e-06
8.67501e-06
8.67501e-06
8.67501e-06
8.67501e-06
8.67501e-06
8.67501e-06
8.67501e-06
8.67502e-06
8.67502e-06
8.67502e-06
8.67503e-06
8.67503e-06
8.67503e-06
8.67504e-06
8.67504e-06
8.67504e-06
8.67504e-06
8.67505e-06
8.67506e-06
8.67509e-06
8.67514e-06
8.67523e-06
8.67533e-06
8.67546e-06
8.67547e-06
8.67545e-06
8.67566e-06
8.67604e-06
8.67653e-06
8.67707e-06
8.67768e-06
8.67854e-06
8.67987e-06
8.68132e-06
8.68136e-06
8.68306e-06
8.6861e-06
8.69069e-06
8.69627e-06
8.70236e-06
8.70763e-06
8.71102e-06
8.71139e-06
8.70797e-06
8.70238e-06
8.70241e-06
8.71393e-06
8.67501e-06
8.67501e-06
8.67501e-06
8.67501e-06
8.67501e-06
8.67501e-06
8.67501e-06
8.67501e-06
8.67502e-06
8.67502e-06
8.67502e-06
8.67503e-06
8.67503e-06
8.67503e-06
8.67504e-06
8.67504e-06
8.67504e-06
8.67504e-06
8.67505e-06
8.67507e-06
8.67511e-06
8.67517e-06
8.67526e-06
8.67536e-06
8.67547e-06
8.67545e-06
8.67543e-06
8.6757e-06
8.67617e-06
8.67676e-06
8.67745e-06
8.67821e-06
8.6792e-06
8.68066e-06
8.68229e-06
8.68225e-06