/*--------------------------------*- C++ -*----------------------------------*\
| =========                 |                                                 |
| \\      /  F ield         | OpenFOAM: The Open Source CFD Toolbox           |
|  \\    /   O peration     | Version:  2406                                  |
|   \\  /    A nd           | Website:  www.openfoam.com                      |
|    \\/     M anipulation  |                                                 |
\*---------------------------------------------------------------------------*/
FoamFile
{
    version     2.0;
    format      ascii;
    arch        "LSB;label=32;scalar=64";
    class       volScalarField;
    location    "5";
    object      p;
}
// * * * * * * * * * * * * * * * * * * * * * * * * * * * * * * * * * * * * * //

dimensions      [0 2 -2 0 0 0 0];

internalField   nonuniform List<scalar> 
38016
(
0.32099
-2.04346
-2.85652
-3.45326
-3.90992
-3.63117
-3.14089
-2.25425
-0.844977
0.88867
3.04266
5.84613
8.32606
12.2189
14.7551
18.2881
21.8586
24.5142
27.7612
30.2417
30.9197
31.7585
31.3239
30.1394
34.298
62.1802
114.414
197.223
305.316
423.39
553.065
688.312
809.447
922.247
1036.11
1145.23
1260.66
1346.49
1398.11
1477.15
1537.67
1550.47
1582.94
1637.83
1657.71
1654.5
1652.6
1655.01
0.489431
-2.10422
-2.80803
-3.60423
-3.68287
-3.73631
-3.07167
-2.32512
-0.905871
0.619295
2.68105
5.23466
7.56855
11.2804
13.6396
16.9328
20.4066
22.9096
26.1243
28.5687
28.6495
29.2559
28.7364
27.3213
30.7522
58.1459
111.546
195.34
303.594
423.789
553.355
684.192
812.029
927.303
1049.59
1153.67
1252.41
1350.09
1395.13
1487.82
1533.99
1569.35
1597.34
1632.91
1654.24
1665.03
1668.24
1674.83
0.492352
-2.10579
-2.82301
-3.60993
-3.71274
-3.75625
-3.12334
-2.40359
-1.04582
0.40967
2.36047
4.81372
7.03742
10.6456
12.9138
16.1004
19.511
21.8907
24.949
27.1949
26.9997
27.2452
26.2765
24.466
27.5365
54.6025
107.775
191.709
300.238
421.065
551.419
683.229
811.851
928.387
1050.22
1155.78
1255.13
1350.68
1401.89
1487.84
1535.42
1573.66
1604.37
1635.74
1656.47
1669.3
1676.6
1688.51
0.508894
-2.11042
-2.83087
-3.6209
-3.73122
-3.77874
-3.16801
-2.48512
-1.18456
0.19361
2.03418
4.38095
6.49542
9.99415
12.1739
15.2535
18.6046
20.8638
23.7657
25.7997
25.3483
25.1949
23.7908
21.5101
24.155
50.8565
103.91
187.954
296.542
417.959
548.833
681.184
810.721
928.845
1050.23
1156.71
1255.38
1349.22
1406.74
1485.73
1534.05
1575.78
1608.46
1636.36
1656.72
1672.03
1684.12
1701.04
0.524922
-2.11501
-2.83898
-3.63182
-3.74998
-3.80115
-3.21281
-2.56648
-1.32323
-0.0221291
1.70826
3.94861
5.954
9.34349
11.4349
14.4073
17.6988
19.8374
22.5823
24.4041
23.6945
23.1384
21.2921
18.5283
20.7148
47.0043
99.8681
183.938
292.493
414.38
545.649
678.401
808.631
928.041
1048.89
1156.07
1254.07
1346.35
1408.67
1482.22
1531.2
1574.54
1608.75
1635.85
1656.41
1673.55
1689.27
1709.68
0.540886
-2.11974
-2.84713
-3.64274
-3.76883
-3.82357
-3.25759
-2.64783
-1.46183
-0.237767
1.38257
3.51646
5.41304
8.69337
10.6965
13.5616
16.7934
18.8116
21.3986
23.0075
22.0383
21.0748
18.7819
15.5218
17.2179
43.0484
95.6576
179.665
288.089
410.318
541.846
674.844
805.555
925.985
1046.23
1153.85
1251.19
1341.99
1407.76
1477.16
1526.8
1570.71
1605.84
1633.31
1654.88
1673.87
1692.29
1714.61
0.556779
-2.12462
-2.85535
-3.65366
-3.78777
-3.84599
-3.30238
-2.72918
-1.60039
-0.453325
1.05709
3.08447
4.87248
8.04371
9.95877
12.7165
15.8885
17.7864
20.2146
21.6101
20.3802
19.0047
16.2613
12.4921
13.667
38.9897
91.2761
175.13
283.317
405.753
537.392
670.478
801.454
922.643
1042.22
1150.02
1246.69
1336.01
1404.07
1470.44
1520.78
1564.72
1600.26
1628.46
1651.5
1672.11
1692.4
1715.63
0.572599
-2.12965
-2.86363
-3.6646
-3.8068
-3.86842
-3.34716
-2.81052
-1.73892
-0.668823
0.731792
2.65258
4.33227
7.39446
9.22163
11.8717
14.9839
16.7618
19.0306
20.2123
18.7205
16.9289
13.7313
9.44069
10.0631
34.8272
86.7186
170.321
278.16
400.657
532.25
665.257
796.283
917.975
1036.8
1144.54
1240.53
1328.32
1397.71
1461.98
1513
1556.78
1592.41
1621.42
1645.98
1667.91
1689.38
1712.87
0.58834
-2.13481
-2.87198
-3.67555
-3.82593
-3.89086
-3.39194
-2.89188
-1.87744
-0.884281
0.406651
2.22078
3.79236
6.74555
8.48502
11.0273
14.0798
15.7379
17.8466
18.8141
17.0598
14.8481
11.1928
6.36902
6.40722
30.5601
81.9799
165.226
272.597
395.004
526.385
659.141
790
911.945
1029.94
1137.36
1232.62
1318.82
1388.82
1451.73
1503.33
1546.85
1582.49
1612.24
1638.03
1660.95
1683.2
1706.63
0.603998
-2.14013
-2.88039
-3.68651
-3.84514
-3.91332
-3.43674
-2.97325
-2.01596
-1.09973
0.0816312
1.78901
3.25269
6.09693
7.74887
10.1833
13.176
14.7147
16.6628
17.4159
15.3986
12.7634
8.64739
3.27905
2.70105
26.1881
77.0559
159.836
266.614
388.769
519.763
652.092
782.571
904.529
1021.6
1128.44
1222.88
1307.47
1377.62
1439.69
1491.58
1534.84
1570.55
1600.91
1627.43
1650.88
1673.54
1696.57
0.619571
-2.14558
-2.88886
-3.69749
-3.86445
-3.9358
-3.48155
-3.05466
-2.1545
-1.31519
-0.24331
1.35722
2.71316
5.44848
7.01308
9.3395
12.2724
13.6922
15.4794
16.0181
13.7378
10.6759
6.09677
0.173303
-1.05289
21.7122
71.9435
154.141
260.194
381.927
512.355
644.077
773.971
895.709
1011.75
1117.76
1211.24
1294.28
1364.35
1425.82
1477.66
1520.67
1556.57
1587.39
1614.17
1637.73
1660.53
1683.04
0.635052
-2.15118
-2.89741
-3.70848
-3.88386
-3.95831
-3.5264
-3.1361
-2.29308
-1.53071
-0.568231
0.925337
2.1737
4.80008
6.27749
8.49581
11.3689
12.6704
14.2963
14.6209
12.0779
8.58689
3.5431
-2.94509
-4.85116
17.1344
66.6407
148.135
253.324
374.459
504.136
635.071
764.184
885.477
1000.37
1105.27
1197.67
1279.31
1349.18
1410.12
1461.56
1504.32
1540.46
1571.5
1598.17
1621.55
1644.26
1666.17
0.650438
-2.15693
-2.90602
-3.7195
-3.90336
-3.98085
-3.57127
-3.21761
-2.43174
-1.74632
-0.893199
0.493279
1.63417
4.15159
5.54193
7.65206
10.4654
11.6491
13.1138
13.2246
10.4199
6.4981
0.988905
-6.07233
-8.68929
12.4582
61.1473
141.811
245.991
366.347
495.085
625.059
753.204
873.831
987.423
1090.98
1182.2
1262.64
1332.24
1392.55
1443.4
1485.92
1522.18
1553.16
1579.52
1602.59
1625.03
1646.18
0.665724
-2.16282
-2.91471
-3.73054
-3.92297
-4.00345
-3.6162
-3.2992
-2.57051
-1.96208
-1.21829
0.0609311
1.09443
3.5028
4.80619
6.80801
9.56159
10.6282
11.9318
11.8297
8.76458
4.41134
-1.56281
-9.20389
-12.5617
7.6886
55.4647
135.166
238.186
357.575
485.189
614.033
741.036
860.776
972.917
1074.93
1164.94
1244.38
1313.56
1373.13
1423.33
1465.68
1501.86
1532.52
1558.49
1581.27
1603.43
1623.87
0.680904
-2.16885
-2.92347
-3.74162
-3.94268
-4.02609
-3.66119
-3.3809
-2.70943
-2.17805
-1.54359
-0.371837
0.554314
2.85353
4.06999
5.96339
8.65719
9.60746
10.7503
10.4365
7.11305
2.32872
-4.10857
-12.3345
-16.4617
2.83204
49.596
128.198
229.904
348.137
474.443
601.998
727.692
846.325
956.865
1057.22
1146.05
1224.63
1293.18
1351.86
1401.47
1443.61
1479.47
1509.59
1535.04
1557.45
1579.21
1598.93
0.695972
-2.17504
-2.93231
-3.75272
-3.9625
-4.04881
-3.70627
-3.46273
-2.84855
-2.3943
-1.86919
-0.805173
0.0135923
2.2035
3.33304
5.11788
7.75183
8.58665
9.56922
9.04518
5.46637
0.252585
-6.64442
-15.4579
-20.3811
-2.10322
43.5466
120.909
221.141
338.029
462.852
588.968
713.193
830.504
939.317
1037.99
1125.71
1203.42
1271.09
1328.81
1377.83
1419.61
1454.92
1484.37
1509.29
1531.26
1552.51
1571.42
0.710924
-2.18137
-2.94123
-3.76387
-3.98243
-4.0716
-3.75145
-3.54472
-2.98791
-2.61091
-2.19523
-1.23924
-0.527985
1.55239
2.59496
4.27111
6.84509
7.56537
8.38854
7.65622
3.82571
-1.81441
-9.16586
-18.5673
-24.3107
-7.1071
37.324
113.303
211.901
327.254
450.428
574.967
697.568
813.353
920.356
1017.4
1104.03
1180.76
1247.29
1304.01
1352.39
1393.57
1428.09
1456.82
1481.24
1502.79
1523.53
1541.73
0.725753
-2.18786
-2.95023
-3.77505
-4.00249
-4.0945
-3.79675
-3.62692
-3.12758
-2.82796
-2.52182
-1.67423
-1.07069
0.89983
1.85527
3.42261
5.93646
6.5432
7.20805
6.26987
2.19232
-3.86937
-11.6679
-21.6547
-28.2396
-12.1676
30.938
105.388
202.189
315.823
437.194
560.022
680.852
794.931
900.095
995.597
1081.1
1156.63
1221.81
1277.52
1325.17
1365.52
1399.09
1427.06
1450.95
1472.03
1492.22
1509.76
0.740452
-2.1945
-2.95932
-3.78629
-4.02267
-4.1175
-3.84221
-3.70937
-3.26763
-3.04557
-2.84912
-2.11036
-1.61483
0.245391
1.11342
2.57179
5.02534
5.5196
6.02753
4.88642
0.567519
-5.90911
-14.145
-24.7115
-32.1556
-17.271
24.4012
97.1738
192.017
303.755
423.176
544.167
663.086
775.316
878.657
972.681
1056.93
1131.01
1194.74
1249.42
1296.2
1335.56
1368.18
1395.44
1418.81
1439.39
1459.02
1475.91
0.755014
-2.2013
-2.96849
-3.79758
-4.043
-4.14064
-3.88785
-3.79211
-3.40813
-3.26384
-3.1773
-2.54787
-2.16074
-0.411386
0.368791
1.71795
4.11089
4.49388
4.84673
3.50616
-1.04726
-7.93018
-16.5911
-27.7281
-36.0454
-22.4015
17.7284
88.6766
181.403
291.072
408.411
527.435
644.313
754.593
856.154
948.706
1031.48
1103.95
1166.23
1219.81
1265.48
1303.68
1335.35
1361.93
1384.77
1404.81
1423.86
1440.15
0.769432
-2.20826
-2.97777
-3.80894
-4.06347
-4.16393
-3.93371
-3.87519
-3.54917
-3.4829
-3.50653
-2.98702
-2.70882
-1.07102
-0.379266
0.860351
3.1922
3.46504
3.66513
2.1293
-2.6505
-9.92883
-18.9997
-30.6943
-39.8943
-27.5418
10.9369
79.9146
170.37
277.808
392.933
509.86
624.582
732.849
832.665
923.666
1004.75
1075.47
1136.33
1188.69
1233.08
1270.02
1300.71
1326.59
1348.85
1368.32
1386.8
1402.55
0.783698
-2.21539
-2.98715
-3.82038
-4.08409
-4.18739
-3.97982
-3.95868
-3.69084
-3.7029
-3.83704
-3.42812
-3.25949
-1.73409
-1.1315
-0.00182328
2.2683
2.43209
2.48205
0.755722
-4.24076
-11.901
-21.364
-33.5993
-43.6865
-32.673
4.04631
70.9102
158.944
263.995
376.78
491.473
603.938
710.155
808.22
897.518
976.691
1045.6
1104.98
1155.99
1198.98
1234.7
1264.48
1289.69
1311.36
1330.27
1348.22
1363.49
0.797804
-2.22268
-2.99663
-3.83189
-4.10489
-4.21106
-4.02623
-4.04264
-3.83325
-3.92399
-4.16904
-3.8715
-3.81321
-2.40125
-1.88872
-0.869485
1.33812
1.394
1.29678
-0.614763
-5.81688
-13.8427
-23.6766
-36.4316
-47.4056
-37.775
-2.92159
61.689
147.159
249.672
359.984
472.304
582.423
686.562
782.812
870.208
947.321
1014.39
1072.21
1121.71
1163.26
1197.82
1226.77
1251.33
1272.41
1290.77
1308.22
1323.05
0.81174
-2.23014
-3.00623
-3.8435
-4.12587
-4.23497
-4.07298
-4.12714
-3.9765
-4.14634
-4.50278
-4.3175
-4.37051
-3.07318
-2.65185
-1.74365
0.400452
0.349593
0.108633
-1.9822
-7.37767
-15.7502
-25.9304
-39.1795
-51.0344
-42.8271
-9.94349
52.2794
135.047
234.875
342.574
452.381
560.077
662.099
756.414
841.705
916.678
981.926
1038.17
1086.09
1126.23
1159.73
1187.91
1211.85
1232.37
1250.22
1267.2
1281.65
0.825497
-2.23778
-3.01594
-3.85521
-4.14705
-4.25913
-4.12011
-4.21226
-4.12073
-4.37013
-4.83852
-4.76652
-4.93195
-3.75067
-3.42188
-2.62542
-0.546048
-0.702443
-1.08324
-3.34668
-8.92162
-17.6194
-28.1184
-41.8314
-54.5558
-47.8081
-16.995
42.7111
122.646
219.637
324.576
431.73
536.935
636.785
729.011
812.042
884.865
948.314
1002.95
1049.34
1088.16
1120.69
1148.14
1171.46
1191.42
1208.8
1225.37
1239.46
0.839065
-2.2456
-3.02579
-3.86704
-4.16845
-4.2836
-4.1677
-4.29808
-4.26606
-4.59555
-5.17655
-5.21898
-5.49811
-4.43453
-4.19988
-3.51603
-1.50285
-1.76357
-2.27982
-4.70838
-10.4473
-19.4461
-30.2338
-44.3762
-57.9524
-52.6973
-24.0514
33.0142
109.986
203.989
306.008
410.381
513.031
610.631
700.615
781.309
852.043
913.706
966.702
1011.57
1049.16
1080.76
1107.47
1130.12
1149.49
1166.37
1182.51
1196.24
0.852433
-2.25361
-3.03577
-3.879
-4.19008
-4.3084
-4.21578
-4.38469
-4.41262
-4.82282
-5.51717
-5.6753
-6.06964
-5.12566
-4.98702
-4.41679
-2.47157
-2.83538
-3.48223
-6.06766
-11.9532
-21.2261
-32.2699
-46.8039
-61.2081
-57.4745
-31.0887
23.2167
97.0983
187.95
286.887
388.365
488.398
583.652
671.264
749.609
818.344
878.251
929.59
972.967
1009.4
1040.12
1066.08
1088.08
1106.88
1123.3
1139.03
1152.42
0.865589
-2.26182
-3.04589
-3.89111
-4.21196
-4.33358
-4.26443
-4.4722
-4.56058
-5.05216
-5.8607
-6.13596
-6.64721
-5.82499
-5.78452
-5.32911
-3.45396
-3.91965
-4.69176
-7.42504
-13.4383
-22.9554
-34.2203
-49.1054
-64.3082
-62.1209
-38.0842
13.3428
84.0024
171.533
267.226
365.709
463.06
555.857
641.002
717.02
783.822
841.991
891.701
933.656
968.969
998.782
1023.97
1045.29
1063.54
1079.5
1094.83
1107.9
0.878521
-2.27022
-3.05617
-3.90337
-4.23412
-4.35918
-4.31372
-4.56069
-4.71008
-5.28378
-6.20746
-6.60144
-7.23152
-6.53351
-6.59368
-6.2545
-4.45187
-5.01826
-5.90984
-8.78121
-14.9016
-24.6305
-36.0793
-51.2728
-67.2402
-66.6189
-45.0176
3.41058
70.7101
154.743
247.034
342.435
437.027
527.244
609.861
683.6
748.508
804.943
853.078
893.72
927.993
956.941
981.373
1002.04
1019.75
1035.29
1050.26
1063.02
0.891216
-2.27883
-3.06661
-3.91582
-4.25656
-4.38524
-4.3637
-4.65028
-4.86129
-5.51793
-6.55778
-7.07222
-7.8233
-7.25223
-7.41586
-7.19454
-5.4673
-6.13325
-7.13813
-10.1372
-16.3425
-26.2487
-37.8426
-53.2998
-69.9955
-70.9543
-51.8712
-6.56933
57.2213
137.573
226.316
318.548
410.284
497.79
577.845
649.363
712.421
767.143
813.759
853.167
886.456
914.567
938.264
958.311
975.52
990.68
1005.31
1017.78
0.903659
-2.28766
-3.07722
-3.92846
-4.27933
-4.41181
-4.41447
-4.74107
-5.01437
-5.75486
-6.91203
-7.54882
-8.4233
-7.98221
-8.25247
-8.15088
-6.50236
-7.26681
-8.37846
-11.4942
-17.7609
-27.8079
-39.5074
-55.1828
-72.5696
-75.1176
-58.6296
-16.5941
43.5238
120.006
205.063
294.032
382.789
467.456
544.933
614.276
675.515
728.578
773.754
811.999
844.351
871.666
894.688
914.185
930.972
945.815
960.167
972.436
0.915837
-2.29672
-3.08803
-3.94131
-4.30244
-4.43893
-4.46608
-4.83318
-5.16949
-5.99479
-7.27053
-8.03174
-9.03226
-8.72451
-9.10493
-9.12525
-7.55925
-8.42126
-9.63291
-12.8538
-19.1574
-29.3075
-41.0729
-56.9207
-74.9608
-79.1073
-65.2813
-26.6671
29.5944
102.016
183.253
268.844
354.479
436.2
511.1
578.29
637.708
689.143
732.947
770.087
801.524
828.051
850.408
869.38
885.772
900.335
914.445
926.52
0.927733
-2.30601
-3.09903
-3.9544
-4.32592
-4.46667
-4.51862
-4.92673
-5.32682
-6.23797
-7.63363
-8.5215
-9.65095
-9.48021
-9.9747
-10.1194
-8.64027
-9.59905
-10.9038
-14.2182
-20.5333
-30.7483
-42.5408
-58.5166
-77.1727
-82.93
-71.8233
-36.7932
15.4027
83.5671
160.846
242.919
325.276
403.966
476.297
541.347
598.922
648.744
691.227
727.334
757.939
783.775
805.574
824.122
840.208
854.56
868.48
880.397
0.93933
-2.31554
-3.11024
-3.96774
-4.34978
-4.49508
-4.57217
-5.02182
-5.48654
-6.48465
-8.00166
-9.01857
-10.2801
-10.2504
-10.8632
-11.1351
-9.74776
-10.8027
-12.1937
-15.5899
-21.8909
-32.1327
-43.9157
-59.9774
-79.2142
-86.598
-78.2681
-46.979
0.919078
64.6168
137.782
216.175
295.096
370.686
440.444
503.339
559.05
607.271
648.451
683.524
713.289
738.441
759.705
777.862
793.676
807.847
821.598
833.376
0.95061
-2.32533
-3.12169
-3.98137
-4.37407
-4.5242
-4.62682
-5.11859
-5.6488
-6.73504
-8.37494
-9.52342
-10.9204
-11.036
-11.7719
-12.1742
-10.8841
-12.035
-13.5055
-16.9719
-23.2334
-33.4653
-45.2053
-61.315
-81.101
-90.1301
-84.6414
-57.2404
-13.8729
45.127
113.993
188.52
263.855
336.29
403.449
464.145
517.958
564.607
604.546
638.644
667.633
692.17
712.972
730.803
746.399
760.426
774.03
785.681
0.961554
-2.33538
-3.13337
-3.99529
-4.39881
-4.5541
-4.68263
-5.21713
-5.81378
-6.98937
-8.75375
-10.0365
-11.5725
-11.8381
-12.702
-13.2383
-12.0518
-13.2986
-14.8424
-18.3681
-24.5657
-34.7532
-46.4212
-62.5463
-82.8557
-93.5537
-90.9771
-67.6137
-28.984
25.0792
89.4154
159.864
231.469
300.697
365.218
423.659
475.529
520.595
559.295
592.42
620.638
644.577
664.941
682.472
697.87
711.773
725.252
736.792
0.972143
-2.34572
-3.14531
-4.00954
-4.42402
-4.58482
-4.7397
-5.31756
-5.98161
-7.24783
-9.13837
-10.5582
-12.2371
-12.6575
-13.655
-14.3293
-13.2531
-14.5965
-16.2079
-19.7829
-25.894
-36.006
-47.5786
-63.6939
-84.5083
-96.9045
-97.3173
-78.1469
-44.441
4.47513
64.0142
130.14
197.862
263.819
325.649
381.784
431.687
475.179
512.662
544.833
572.304
595.677
615.636
632.894
648.116
661.91
675.282
686.736
0.982353
-2.35634
-3.15753
-4.02415
-4.44973
-4.61643
-4.79809
-5.41998
-6.15244
-7.5106
-9.52902
-11.0888
-12.9146
-13.4951
-14.6319
-15.4488
-14.4905
-15.9315
-17.6059
-21.2215
-27.226
-37.2362
-48.697
-64.786
-86.0964
-100.226
-103.712
-88.8843
-60.2864
-16.6921
37.7903
99.3225
162.992
225.583
284.648
338.427
386.342
428.263
464.533
495.754
522.483
545.297
564.857
581.844
596.886
610.567
623.825
635.186
0.992164
-2.36727
-3.17004
-4.03913
-4.47597
-4.64897
-4.85789
-5.5245
-6.3264
-7.77782
-9.92588
-11.6286
-13.6056
-14.3515
-15.6338
-16.5982
-15.7661
-17.3067
-19.0407
-22.6901
-28.5716
-38.4593
-49.8
-65.8563
-87.6647
-103.571
-110.216
-99.8713
-76.5596
-38.464
10.7357
67.4136
126.845
185.945
242.155
293.527
339.441
379.788
414.853
445.142
471.161
493.459
512.661
529.411
544.3
557.885
571.043
582.319
1.00155
-2.37853
-3.18285
-4.05451
-4.50276
-4.68251
-4.91917
-5.63119
-6.50358
-8.04961
-10.3291
-12.1778
-14.3103
-15.2272
-16.6616
-17.7791
-17.0823
-18.7252
-20.5169
-24.1958
-29.942
-39.6939
-50.9154
-66.9444
-89.2648
-106.997
-116.893
-111.158
-93.2911
-60.8784
-17.1808
34.4146
89.4218
144.887
198.14
247.048
290.941
329.697
363.532
392.863
418.152
439.92
458.759
475.269
490.006
503.496
516.559
527.751
1.01048
-2.39011
-3.196
-4.07033
-4.53014
-4.71709
-4.98199
-5.74015
-6.68408
-8.32606
-10.7387
-12.7365
-15.0289
-16.1227
-17.7158
-18.9925
-18.4411
-20.1898
-22.0395
-25.7464
-31.3509
-40.9614
-52.0746
-68.0944
-90.9544
-110.568
-123.805
-122.795
-110.508
-83.9521
-45.9817
0.327805
50.7379
102.406
152.592
198.979
240.822
277.98
310.589
338.976
363.547
384.792
403.265
419.529
434.1
447.483
460.438
471.527
1.01894
-2.40205
-3.2095
-4.08661
-4.55812
-4.75276
-5.04641
-5.85143
-6.86796
-8.60718
-11.1547
-13.3047
-15.7616
-17.0381
-18.7971
-20.2397
-19.8442
-21.7039
-23.614
-27.3507
-32.8135
-42.2862
-53.3126
-69.3549
-92.7955
-114.351
-131.016
-134.827
-128.229
-107.69
-75.666
-34.8376
10.821
58.5317
105.532
149.335
189.089
224.611
255.972
283.42
307.298
328.05
346.185
362.221
376.64
389.92
402.768
413.748
1.02689
-2.41436
-3.22337
-4.10337
-4.58674
-4.78957
-5.1125
-5.96509
-7.05526
-8.893
-11.5771
-13.8823
-16.5083
-17.9735
-19.9056
-21.5213
-21.2933
-23.2702
-25.246
-29.0186
-34.3466
-43.6949
-54.6671
-70.7776
-94.8534
-118.414
-138.587
-147.296
-146.472
-132.091
-106.204
-71.049
-30.2859
13.3263
57.0217
98.1933
135.84
169.699
199.772
226.239
249.39
269.627
287.409
303.207
317.466
330.641
343.379
354.242
1.03431
-2.42705
-3.23763
-4.12065
-4.616
-4.82757
-5.18028
-6.08117
-7.24598
-9.18344
-12.0057
-14.4691
-17.2686
-18.9285
-21.0413
-22.8379
-22.7897
-24.8918
-26.9415
-30.7603
-35.9686
-45.2161
-56.178
-72.416
-97.1944
-122.826
-146.573
-160.24
-165.257
-157.15
-137.545
-108.24
-72.5104
-33.1123
7.16733
45.6587
81.1996
113.418
142.232
167.742
190.18
209.901
227.321
242.868
256.953
270.005
282.619
293.342
1.04116
-2.44015
-3.25231
-4.13847
-4.64594
-4.86679
-5.24981
-6.19969
-7.44011
-9.47841
-12.4403
-15.0647
-18.0423
-19.9028
-22.2038
-24.1899
-24.3345
-26.5715
-28.7065
-32.5866
-37.6987
-46.8794
-57.8858
-74.3242
-99.884
-127.651
-155.024
-173.684
-184.583
-182.835
-169.622
-146.312
-115.754
-80.6665
-43.8916
-8.13751
25.2728
55.8366
83.3941
107.971
129.727
148.955
166.025
181.322
195.226
208.145
220.622
231.183
1.0474
-2.45367
-3.26742
-4.15687
-4.67657
-4.90727
-5.32112
-6.32066
-7.63761
-9.77777
-12.8807
-15.6687
-18.8287
-20.8956
-23.3927
-25.577
-25.9284
-28.3116
-30.547
-34.5087
-39.5566
-48.7149
-59.831
-76.5548
-102.984
-132.95
-163.98
-187.65
-204.441
-209.1
-202.353
-185.143
-159.889
-129.212
-96.0067
-63.0268
-31.7527
-2.85171
23.4259
47.0497
68.1152
86.8534
103.577
118.627
132.35
145.134
157.469
167.855
1.05301
-2.46764
-3.28299
-4.17587
-4.70791
-4.94904
-5.39422
-6.44408
-7.83838
-10.0813
-13.3264
-16.2805
-19.6271
-21.9059
-24.6068
-26.9991
-27.5716
-30.1146
-32.4689
-36.5376
-41.562
-50.752
-62.0528
-79.1573
-106.552
-138.776
-173.474
-202.144
-224.815
-235.902
-235.658
-224.595
-204.763
-178.612
-149.051
-118.901
-89.7727
-62.5096
-37.4946
-14.8303
5.5233
23.7435
40.0935
54.8721
68.3934
81.0222
93.1975
103.385
1.05794
-2.48207
-3.29905
-4.19551
-4.73998
-4.99214
-5.46913
-6.56992
-8.04233
-10.3888
-13.7771
-16.8994
-20.4365
-22.9327
-25.8452
-28.4551
-29.2639
-31.9821
-34.4775
-38.6837
-43.7335
-53.0184
-64.5872
-82.1763
-110.636
-145.172
-183.529
-217.164
-245.673
-263.173
-269.427
-264.526
-250.209
-228.708
-202.888
-175.668
-148.764
-123.167
-99.4003
-77.668
-58.0038
-40.292
-24.3185
-9.82243
3.48149
15.9371
27.9364
37.9027
1.06215
-2.49698
-3.31563
-4.21581
-4.77278
-5.03659
-5.54586
-6.69813
-8.24932
-10.6999
-14.2322
-17.5246
-21.2558
-23.9744
-27.1062
-29.9441
-31.0046
-33.9154
-36.5776
-40.9566
-46.0883
-55.5391
-67.4663
-85.6497
-115.275
-152.172
-194.16
-232.695
-266.977
-290.828
-303.54
-304.798
-296.062
-279.348
-257.39
-233.201
-208.636
-184.813
-162.386
-141.656
-122.733
-105.571
-90.0117
-75.8361
-62.7873
-50.5424
-38.7531
-29.0469
1.0656
-2.51241
-3.33274
-4.23679
-4.80634
-5.08241
-5.62439
-6.82867
-8.4592
-11.0144
-14.6912
-18.1553
-22.0837
-25.0294
-28.388
-31.4643
-32.7925
-35.9151
-38.7731
-43.3646
-48.6413
-58.3353
-70.7164
-89.6071
-120.498
-159.795
-205.37
-248.713
-288.674
-318.782
-337.899
-345.293
-342.158
-330.375
-312.447
-291.421
-269.293
-247.325
-226.306
-206.648
-188.532
-171.972
-156.869
-143.048
-130.287
-118.285
-106.734
-97.3209
1.06826
-2.52836
-3.35041
-4.2585
-4.84065
-5.12962
-5.70473
-6.96146
-8.67177
-11.3317
-15.1534
-18.7904
-22.9189
-26.0957
-29.6885
-33.0138
-34.6256
-37.981
-41.0665
-45.914
-51.404
-61.4232
-74.3572
-94.0687
-126.32
-168.048
-217.152
-265.185
-310.702
-346.945
-372.383
-385.872
-388.337
-381.594
-367.895
-350.234
-330.728
-310.771
-291.276
-272.791
-255.585
-239.73
-225.173
-211.781
-199.367
-187.656
-176.379
-167.294
1.07006
-2.54488
-3.36868
-4.28096
-4.87574
-5.17823
-5.78684
-7.09643
-8.88683
-11.6517
-15.6181
-19.4289
-23.7598
-27.1714
-31.0053
-34.5901
-36.5015
-40.1121
-43.4591
-48.6089
-54.3844
-64.8135
-78.4004
-99.0439
-132.745
-176.924
-229.488
-282.071
-332.991
-375.222
-406.865
-426.397
-434.458
-432.799
-423.478
-409.363
-392.662
-374.908
-357.099
-339.905
-323.708
-308.653
-294.736
-281.864
-269.877
-258.529
-247.582
-238.879
1.07097
-2.56197
-3.38758
-4.3042
-4.9116
-5.22825
-5.8707
-7.23348
-9.10416
-11.9737
-16.0847
-20.0696
-24.6047
-28.2542
-32.3358
-36.1903
-38.417
-42.3064
-45.9505
-51.4509
-57.586
-68.5106
-82.8491
-104.531
-139.761
-186.401
-242.347
-299.322
-355.463
-403.518
-441.232
-466.751
-480.384
-483.795
-478.936
-468.486
-454.689
-439.256
-423.266
-407.467
-392.339
-378.116
-364.86
-352.524
-340.984
-330.018
-319.413
-311.11
1.07093
-2.57967
-3.40712
-4.32825
-4.94825
-5.27971
-5.95628
-7.37252
-9.32353
-12.2975
-16.5523
-20.7114
-25.4518
-29.3416
-33.6772
-37.8112
-40.3684
-44.5608
-48.5384
-54.4385
-61.0077
-72.512
-87.6975
-110.517
-147.345
-196.443
-255.686
-316.882
-378.041
-431.731
-475.377
-506.796
-525.967
-534.385
-533.955
-527.196
-516.31
-503.182
-489.018
-474.653
-460.636
-447.269
-434.676
-422.861
-411.74
-401.123
-390.811
-382.865
1.06989
-2.59799
-3.42735
-4.35313
-4.98569
-5.33259
-6.04355
-7.51343
-9.54469
-12.6225
-17.0203
-21.353
-26.2994
-30.4312
-35.0262
-39.4491
-42.3513
-46.871
-51.2188
-57.5672
-64.6437
-76.8087
-92.9309
-116.978
-155.461
-207.002
-269.447
-334.689
-400.643
-459.762
-509.194
-546.414
-571.076
-584.401
-588.199
-584.959
-576.842
-565.83
-553.259
-540.095
-526.996
-514.331
-502.275
-490.869
-480.061
-469.69
-459.554
-451.856
1.06778
-2.61698
-3.4483
-4.37889
-5.02392
-5.38692
-6.13246
-7.65611
-9.76739
-12.9482
-17.4879
-21.9933
-27.1457
-31.5204
-36.3798
-41.0999
-44.3606
-49.232
-53.9856
-60.8297
-68.4833
-81.3848
-98.526
-123.879
-164.063
-218.017
-283.563
-352.666
-423.184
-487.511
-542.575
-585.499
-615.593
-633.746
-641.528
-641.422
-635.71
-626.45
-615.092
-602.722
-590.126
-577.771
-565.899
-554.589
-543.82
-533.448
-523.242
-515.565
1.06456
-2.63665
-3.47
-4.40555
-5.06296
-5.44269
-6.22298
-7.80045
-9.99138
-13.2742
-17.9542
-22.631
-27.9888
-32.6065
-37.7346
-42.7594
-46.3909
-51.6374
-56.8311
-64.2155
-72.5112
-86.2186
-104.451
-131.177
-173.092
-229.418
-297.952
-370.728
-445.577
-514.877
-575.409
-623.947
-659.417
-682.345
-693.969
-696.62
-692.758
-684.647
-673.905
-661.746
-649.088
-636.498
-624.284
-612.578
-601.385
-590.582
-579.878
-571.823
1.06015
-2.65703
-3.49248
-4.43315
-5.1028
-5.49992
-6.31506
-7.94633
-10.2164
-13.6002
-18.4185
-23.2649
-28.8268
-33.687
-39.0871
-44.4231
-48.4363
-54.0801
-59.7457
-67.7116
-76.7083
-91.2827
-110.669
-138.818
-182.483
-241.126
-312.523
-388.777
-467.723
-541.759
-607.586
-661.654
-702.472
-730.145
-745.594
-750.908
-748.559
-741.046
-730.296
-717.704
-704.348
-690.915
-677.795
-665.162
-653.047
-641.337
-629.646
-620.733
1.05449
-2.67816
-3.51579
-4.46171
-5.14346
-5.5586
-6.40867
-8.09366
-10.4423
-13.9255
-18.8802
-23.8939
-29.6581
-34.7592
-40.4339
-46.0861
-50.4905
-56.5522
-62.7186
-71.3025
-81.0519
-96.5456
-117.136
-146.745
-192.164
-253.055
-327.18
-406.704
-489.51
-568.048
-638.992
-698.51
-744.687
-777.155
-796.526
-804.641
-803.852
-796.845
-785.874
-772.538
-758.112
-743.445
-729.038
-715.124
-701.76
-688.836
-675.846
-665.78
1.04752
-2.70005
-3.53995
-4.49127
-5.18493
-5.61875
-6.50377
-8.24231
-10.6687
-14.25
-19.3386
-24.517
-30.4808
-35.8208
-41.7717
-47.7439
-52.5471
-59.0452
-65.7376
-74.9711
-85.5168
-101.972
-123.804
-154.896
-202.057
-265.116
-341.82
-424.395
-510.812
-593.62
-669.501
-734.389
-785.972
-823.386
-846.918
-858.124
-859.236
-853.112
-842.236
-828.45
-813.226
-797.569
-782.085
-767.07
-752.613
-738.618
-724.457
-713.398
1.03915
-2.72276
-3.56501
-4.52187
-5.22724
-5.68038
-6.60032
-8.39221
-10.8955
-14.5731
-19.7929
-25.1331
-31.2935
-36.8692
-43.0972
-49.3917
-54.5997
-61.5501
-68.7899
-78.6988
-90.0758
-107.525
-130.623
-163.205
-212.082
-277.215
-356.336
-441.729
-531.494
-618.325
-698.967
-769.147
-826.193
-868.775
-896.791
-911.506
-915.012
-910.278
-900.002
-886.264
-870.699
-854.454
-838.235
-822.41
-807.104
-792.235
-777.078
-765.204
1.02931
-2.74629
-3.59101
-4.55354
-5.27039
-5.7435
-6.6983
-8.54327
-11.1225
-14.8946
-20.2426
-25.7413
-32.0946
-37.9024
-44.4073
-51.0249
-56.6417
-64.0578
-71.8622
-82.4663
-94.7007
-113.166
-137.542
-171.607
-222.16
-289.258
-370.622
-458.584
-551.412
-641.995
-727.206
-802.598
-865.166
-913.149
-946.015
-964.73
-971.196
-968.405
-959.22
-945.945
-930.385
-913.826
-897.095
-880.636
-864.622
-849.005
-833.008
-820.49
1.01792
-2.7707
-3.61799
-4.58632
-5.31439
-5.80812
-6.79769
-8.6954
-11.3495
-15.2142
-20.6873
-26.3408
-32.8828
-38.9183
-45.699
-52.6391
-58.6672
-66.5593
-74.941
-86.2542
-99.3633
-118.856
-144.51
-180.036
-232.211
-301.152
-384.57
-474.839
-570.422
-664.452
-753.997
-834.493
-902.622
-956.192
-994.219
-1017.39
-1027.36
-1027.03
-1019.42
-1007.06
-991.913
-975.397
-958.453
-941.612
-925.103
-908.928
-892.263
-879.267
1.00489
-2.79601
-3.646
-4.62025
-5.35928
-5.87427
-6.89846
-8.84856
-11.5764
-15.5316
-21.1263
-26.9309
-33.6569
-39.9151
-46.9697
-54.2302
-60.6703
-69.0459
-78.0134
-90.0436
-104.036
-124.558
-151.478
-188.432
-242.161
-312.809
-398.077
-490.374
-588.384
-685.518
-779.104
-864.529
-938.195
-997.474
-1040.88
-1068.84
-1082.71
-1085.23
-1079.59
-1068.5
-1054.06
-1037.85
-1020.92
-1003.9
-987.079
-970.504
-953.314
-939.995
0.990146
-2.82226
-3.67508
-4.65537
-5.40505
-5.94198
-7.00062
-9.00268
-11.803
-15.8466
-21.5594
-27.511
-34.416
-40.8913
-48.2172
-55.7947
-62.6461
-71.5096
-81.0674
-93.817
-108.694
-130.237
-158.401
-196.736
-251.941
-324.149
-411.05
-505.081
-605.163
-705.021
-802.293
-892.38
-971.442
-1036.43
-1085.33
-1118.24
-1136.22
-1141.87
-1138.49
-1128.94
-1115.47
-1099.8
-1083.1
-1066.09
-1049.13
-1032.3
-1014.72
-1001.22
0.97358
-2.8495
-3.70528
-4.69171
-5.45174
-6.01125
-7.10416
-9.15772
-12.0293
-16.1591
-21.9862
-28.0805
-35.159
-41.8455
-49.4391
-57.329
-64.5894
-73.9425
-84.091
-97.5568
-113.311
-135.861
-165.235
-204.896
-261.485
-335.096
-423.403
-518.858
-620.635
-722.796
-823.34
-917.731
-1001.93
-1072.47
-1126.86
-1164.76
-1186.99
-1195.97
-1195.01
-1187.13
-1174.77
-1159.75
-1143.38
-1126.47
-1109.43
-1092.4
-1074.48
-1060.86
0.955097
-2.87774
-3.73665
-4.72933
-5.49938
-6.08212
-7.20907
-9.31363
-12.2551
-16.4688
-22.4063
-28.6389
-35.8851
-42.7762
-50.6332
-58.8294
-66.4953
-76.3366
-87.0723
-101.246
-117.864
-141.397
-171.94
-212.862
-270.738
-345.586
-435.062
-531.626
-634.701
-738.706
-842.043
-940.301
-1029.28
-1105.13
-1164.85
-1207.69
-1234.31
-1246.88
-1248.59
-1242.57
-1231.46
-1217.2
-1201.25
-1184.5
-1167.44
-1150.24
-1132.02
-1118.35
0.934597
-2.90705
-3.76924
-4.76826
-5.54797
-6.15461
-7.31534
-9.47035
-12.4803
-16.7756
-22.8193
-29.1858
-36.5934
-43.6823
-51.7976
-60.2931
-68.3593
-78.6846
-90.0004
-104.869
-122.332
-146.817
-178.481
-220.592
-279.649
-355.564
-445.971
-543.325
-647.292
-752.655
-858.246
-959.854
-1053.18
-1134.05
-1198.97
-1246.76
-1277.92
-1294.41
-1299.16
-1295.35
-1285.76
-1272.47
-1257.06
-1240.57
-1223.55
-1206.23
-1187.78
-1174.12
0.91197
-2.93746
-3.8031
-4.80856
-5.59757
-6.22874
-7.423
-9.62787
-12.7049
-17.0794
-23.2251
-29.7207
-37.2835
-44.5629
-52.9306
-61.7171
-70.1774
-80.9799
-92.8656
-108.411
-126.693
-152.097
-184.827
-228.049
-288.177
-364.989
-456.091
-553.922
-658.376
-764.593
-871.862
-976.233
-1073.42
-1159.01
-1229.09
-1282.05
-1318.09
-1338.99
-1347.48
-1346.56
-1339.04
-1327.13
-1312.57
-1296.55
-1279.74
-1262.41
-1243.8
-1230.24
0.887105
-2.96902
-3.83829
-4.85026
-5.64819
-6.30455
-7.53204
-9.78614
-12.9287
-17.3801
-23.6234
-30.2435
-37.9547
-45.4171
-54.0308
-63.0993
-71.9462
-83.2167
-95.6593
-111.861
-130.933
-157.214
-190.952
-235.205
-296.293
-373.831
-465.397
-563.404
-667.954
-774.527
-882.879
-989.395
-1089.92
-1179.91
-1255.17
-1313.67
-1355.21
-1381.38
-1394.69
-1397.71
-1393.1
-1383.2
-1369.92
-1354.63
-1338.14
-1320.82
-1301.99
-1288.42
0.859884
-3.00176
-3.87487
-4.89341
-5.69988
-6.38207
-7.64248
-9.94515
-13.1517
-17.6777
-24.0141
-30.7538
-38.6066
-46.2444
-55.097
-64.4375
-73.663
-85.39
-98.3741
-115.207
-135.038
-162.151
-196.836
-242.037
-303.973
-382.07
-473.882
-571.785
-676.063
-782.514
-891.363
-999.4
-1102.73
-1196.83
-1277.35
-1341.88
-1389.83
-1422.3
-1441.6
-1449.95
-1449.56
-1442.68
-1431.4
-1417.29
-1401.35