/*--------------------------------*- C++ -*----------------------------------*\
| =========                 |                                                 |
| \\      /  F ield         | OpenFOAM: The Open Source CFD Toolbox           |
|  \\    /   O peration     | Version:  2406                                  |
|   \\  /    A nd           | Website:  www.openfoam.com                      |
|    \\/     M anipulation  |                                                 |
\*---------------------------------------------------------------------------*/
FoamFile
{
    version     2.0;
    format      ascii;
    arch        "LSB;label=32;scalar=64";
    class       surfaceScalarField;
    location    "5";
    object      phi;
}
// * * * * * * * * * * * * * * * * * * * * * * * * * * * * * * * * * * * * * //

dimensions      [0 3 -1 0 0 0 0];

oriented        oriented;

internalField   nonuniform List<scalar> 
75600
(
0.00990551
-1236.1
1236.11
0.00566532
-1023.25
1023.25
0.00212361
-847.251
847.255
-0.000809422
-701.439
701.442
-0.0032671
-580.927
580.93
-0.00528695
-480.977
480.979
-0.00696687
-398.398
398.4
-0.00836341
-330.011
330.012
-0.00951413
-273.463
273.464
-0.0104757
-226.676
226.677
-0.0112657
-188.026
188.027
-0.0119189
-156.089
156.09
-0.0124676
-129.744
129.745
-0.0129062
-108.046
108.047
-0.0132804
-90.2042
90.2046
-0.013582
-75.5901
75.5904
-0.0138251
-63.6878
63.688
-0.0140261
-54.065
54.0652
-0.014181
-46.3822
46.3823
-0.0142941
-40.3618
40.3619
-0.0143686
-35.7613
35.7613
-0.0143999
-32.4633
32.4633
-0.0143672
-30.3303
30.3302
-0.0142669
-29.2713
29.2712
-0.0140771
-29.1287
29.1285
-0.0138179
-23.2019
23.2016
-0.0135104
-18.485
18.4847
-0.0131778
-14.717
14.7167
-0.0128416
-11.7139
11.7136
-0.0125086
-9.32165
9.32132
-0.0121729
-7.41425
7.41391
-0.0118665
-5.88028
5.87997
-0.0115902
-4.69134
4.69107
-0.0112992
-3.73181
3.73152
-0.0109619
-2.99421
2.99387
-0.0106402
-2.37048
2.37016
-0.0103886
-1.87594
1.87569
-0.0101959
-1.51408
1.51388
-0.00996587
-1.1955
1.19527
-0.00981785
-0.978227
0.978065
-0.00977201
-0.777678
0.777647
-0.00969412
-0.635581
0.635493
-0.00957632
-0.518977
0.518875
-0.00950918
-0.431254
0.431182
-0.00960138
-0.366091
0.366182
-0.00969689
-0.320288
0.320385
-0.00952943
-0.290588
0.29043
-0.275506
0.275129
-0.00913202
0.0348439
-1236.02
0.0259427
-1023.29
0.0185542
-847.231
0.0124119
-701.479
0.00732516
-580.85
0.00309436
-481
-0.000402867
-398.375
-0.00330661
-330.003
-0.00570798
-273.447
-0.00771006
-226.675
-0.00936003
-188.018
-0.0107304
-156.091
-0.0118753
-129.747
-0.0128093
-108.051
-0.0135977
-90.2158
-0.0142488
-75.6125
-0.0147865
-63.7133
-0.0152382
-54.0895
-0.0156105
-46.4041
-0.015903
-40.3736
-0.0161488
-35.789
-0.0163299
-32.4806
-0.0164275
-30.3306
-0.0164335
-29.2602
-0.0163189
-29.1201
-0.0160735
-23.1995
-0.0157195
-18.4721
-0.0153064
-14.7037
-0.0148428
-11.6985
-0.0143627
-9.30694
-0.0138655
-7.40417
-0.0133962
-5.89151
-0.0129007
-4.68803
-0.0124946
-3.73216
-0.0118451
-2.96922
-0.0113966
-2.36886
-0.0112057
-1.89078
-0.010474
-1.50713
-0.0107435
-1.21009
-0.00989145
-0.965935
-0.0100253
-0.780749
-0.00968621
-0.633258
-0.0098532
-0.519747
-0.0095891
-0.431293
-0.00950121
-0.366194
-0.00951182
-0.320223
-0.00921851
-0.290715
-0.27592
-0.00870079
0.0593068
-1236
0.0452537
-1023.28
0.0335955
-847.219
0.0239192
-701.469
0.0159075
-580.842
0.00925351
-480.993
0.00375024
-398.369
-0.000820084
-329.999
-0.00459927
-273.443
-0.00774568
-226.672
-0.0103466
-188.015
-0.012507
-156.089
-0.0143107
-129.745
-0.0157942
-108.049
-0.0170429
-90.2145
-0.0180818
-75.6115
-0.0189482
-63.7125
-0.0196812
-54.0887
-0.0202977
-46.4035
-0.020804
-40.3731
-0.0212412
-35.7886
-0.0215958
-32.4803
-0.0218481
-30.3303
-0.0219831
-29.2601
-0.0219568
-29.1202
-0.0217138
-23.1997
-0.0212851
-18.4725
-0.0207423
-14.7043
-0.0200886
-11.6991
-0.0193881
-9.30766
-0.0186524
-7.40492
-0.0179166
-5.89227
-0.0171182
-4.68882
-0.0164814
-3.73289
-0.0154816
-2.97023
-0.0148394
-2.36955
-0.014536
-1.89117
-0.0133236
-1.50798
-0.0137465
-1.21006
-0.0124601
-0.96682
-0.012475
-0.781197
-0.0119664
-0.633613
-0.0121351
-0.519693
-0.0117096
-0.431654
-0.0113388
-0.366537
-0.0110534
-0.320501
-0.0105813
-0.291201
-0.27649
-0.00996562
0.0839384
-1235.98
0.064658
-1023.26
0.0486813
-847.203
0.0354389
-701.456
0.024474
-580.831
0.0153816
-480.984
0.00785655
-398.362
0.00161801
-329.992
-0.00354924
-273.438
-0.00784483
-226.668
-0.0114005
-188.012
-0.0143549
-156.086
-0.0168211
-129.742
-0.0188587
-108.047
-0.0205734
-90.2128
-0.022007
-75.6101
-0.0232098
-63.7113
-0.0242348
-54.0877
-0.0251069
-46.4026
-0.0258418
-40.3724
-0.0264876
-35.7879
-0.0270342
-32.4797
-0.0274632
-30.3299
-0.0277527
-29.2598
-0.0278425
-29.1201
-0.0276208
-23.1999
-0.0271269
-18.473
-0.0264486
-14.705
-0.0255974
-11.7
-0.0246614
-9.30863
-0.0236591
-7.40593
-0.0226466
-5.89332
-0.0215466
-4.68989
-0.0206632
-3.73392
-0.0193195
-2.97158
-0.0184258
-2.37047
-0.017947
-1.8918
-0.016323
-1.50903
-0.0167411
-1.21024
-0.0151081
-0.967934
-0.0150113
-0.781854
-0.0143195
-0.634141
-0.0141876
-0.519914
-0.0136073
-0.432157
-0.0130188
-0.367081
-0.0124475
-0.321082
-0.0118066
-0.29183
-0.277104
-0.0111129
0.109016
-1235.95
0.0845763
-1023.23
0.0643411
-847.183
0.0475886
-701.439
0.0337275
-580.817
0.0222422
-480.973
0.0127408
-398.352
0.00486484
-329.984
-0.00165499
-273.432
-0.00707261
-226.662
-0.0115603
-188.007
-0.0152902
-156.082
-0.0184041
-129.739
-0.0209847
-108.045
-0.0231577
-90.2106
-0.0249815
-75.6082
-0.0265193
-63.7097
-0.0278381
-54.0864
-0.0289708
-46.4015
-0.0299429
-40.3714
-0.03081
-35.787
-0.0315657
-32.4789
-0.032194
-30.3293
-0.0326671
-29.2594
-0.0329087
-29.1199
-0.032736
-23.2001
-0.0322001
-18.4736
-0.0314058
-14.7058
-0.0303771
-11.7011
-0.0292242
-9.30983
-0.0279756
-7.40718
-0.0267074
-5.89463
-0.025328
-4.69123
-0.0242063
-3.73526
-0.0225842
-2.97322
-0.0214519
-2.3716
-0.0207779
-1.89268
-0.0188753
-1.51024
-0.019123
-1.21072
-0.0173328
-0.969199
-0.0170541
-0.782667
-0.0162016
-0.634857
-0.015711
-0.520416
-0.0149794
-0.432816
-0.0142421
-0.367813
-0.0134993
-0.32185
-0.01272
-0.292532
-0.277787
-0.0119478
0.134698
-1235.91
0.105196
-1023.21
0.0807993
-847.159
0.0606202
-701.419
0.0439377
-580.8
0.0301268
-480.959
0.0187077
-398.341
0.00924856
-329.975
0.00141796
-273.424
-0.00508511
-226.656
-0.0104741
-188.002
-0.0149539
-156.078
-0.0186953
-129.736
-0.021803
-108.042
-0.0244227
-90.208
-0.0266287
-75.606
-0.0284978
-63.7078
-0.0301099
-54.0847
-0.0315068
-46.4001
-0.0327241
-40.3701
-0.0338235
-35.7859
-0.0348045
-32.478
-0.0356533
-30.3284
-0.0363368
-29.2587
-0.036762
-29.1194
-0.0366604
-23.2003
-0.0360972
-18.4741
-0.0351955
-14.7067
-0.0339962
-11.7023
-0.0326304
-9.31125
-0.0311401
-7.40867
-0.0296221
-5.8962
-0.0279727
-4.69283
-0.0266121
-3.73687
-0.0247491
-2.97509
-0.0233763
-2.37294
-0.0224894
-1.89381
-0.0204036
-1.5116
-0.020372
-1.21148
-0.018529
-0.970602
-0.018017
-0.783613
-0.0170108
-0.635755
-0.0161889
-0.521178
-0.015308
-0.433655
-0.0144826
-0.36869
-0.0136178
-0.322717
-0.0127237
-0.29332
-0.278607
-0.0118802
0.160899
-1235.87
0.12627
-1023.17
0.0976661
-847.13
0.0740384
-701.395
0.0545199
-580.78
0.0383805
-480.943
0.0250408
-398.328
0.014
-329.964
0.00486294
-273.415
-0.00272147
-226.648
-0.00900801
-187.996
-0.0142353
-156.072
-0.0186031
-129.731
-0.022238
-108.038
-0.0253063
-90.2049
-0.027899
-75.6034
-0.0301059
-63.7056
-0.0320207
-54.0828
-0.033694
-46.3984
-0.0351718
-40.3687
-0.0365238
-35.7846
-0.0377541
-32.4767
-0.0388525
-30.3273
-0.0397801
-29.2578
-0.0404256
-29.1188
-0.0404155
-23.2003
-0.0398321
-18.4748
-0.0388192
-14.7078
-0.0374386
-11.7038
-0.0358442
-9.3129
-0.0340946
-7.41042
-0.0323095
-5.89805
-0.0303744
-4.69471
-0.0287559
-3.73875
-0.0266533
-2.97719
-0.0250214
-2.37452
-0.0238961
-1.89519
-0.0216615
-1.51315
-0.0212869
-1.21252
-0.019417
-0.972162
-0.0186232
-0.784716
-0.0174417
-0.636835
-0.0163483
-0.522179
-0.0153365
-0.434684
-0.0144261
-0.369701
-0.01344
-0.323681
-0.0124558
-0.294214
-0.27956
-0.0115608
0.187675
-1235.82
0.147817
-1023.13
0.114934
-847.097
0.0878068
-701.368
0.0654229
-580.758
0.0469317
-480.924
0.031661
-398.312
0.0190328
-329.951
0.00858688
-273.404
-7.98859e-05
-226.64
-0.00726465
-187.989
-0.0132401
-156.066
-0.0182353
-129.726
-0.0224006
-108.034
-0.0259224
-90.2014
-0.0289084
-75.6004
-0.0314623
-63.703
-0.0336926
-54.0806
-0.0356584
-46.3964
-0.037417
-40.3669
-0.0390464
-35.7829
-0.0405558
-32.4752
-0.0419396
-30.326
-0.0431525
-29.2566
-0.0440618
-29.1179
-0.044167
-23.2002
-0.0435704
-18.4754
-0.0424391
-14.7089
-0.0408614
-11.7054
-0.0390159
-9.3148
-0.036982
-7.41245
-0.0349047
-5.90019
-0.0326601
-4.69689
-0.0307578
-3.74092
-0.0284043
-2.97954
-0.0264903
-2.37638
-0.0250982
-1.89685
-0.0227243
-1.51493
-0.0219677
-1.21387
-0.0200609
-0.973892
-0.0189507
-0.786005
-0.0175712
-0.638095
-0.0162801
-0.523394
-0.0151731
-0.435874
-0.0141566
-0.370814
-0.0130535
-0.324722
-0.0120181
-0.295189
-0.280595
-0.0110858
0.215129
-1235.77
0.169917
-1023.09
0.132668
-847.06
0.101985
-701.337
0.076698
-580.733
0.0558359
-480.904
0.0386241
-398.295
0.024401
-329.937
0.0126441
-273.392
0.00289488
-226.63
-0.00518761
-187.98
-0.011911
-156.06
-0.0175352
-129.721
-0.0222334
-108.029
-0.0262134
-90.1974
-0.0296003
-75.597
-0.0325124
-63.7001
-0.0350723
-54.078
-0.0373492
-46.3942
-0.0394121
-40.3648
-0.0413478
-35.781
-0.0431722
-32.4734
-0.0448833
-30.3242
-0.0464298
-29.255
-0.047656
-29.1167
-0.0479061
-23.2
-0.0473071
-18.476
-0.0460525
-14.7102
-0.0442628
-11.7073
-0.0421443
-9.31699
-0.0398012
-7.41479
-0.0374064
-5.90267
-0.0348294
-4.69939
-0.0326176
-3.74341
-0.0300001
-2.98214
-0.027785
-2.37852
-0.0260997
-1.89881
-0.0235877
-1.51698
-0.0224328
-1.21554
-0.0204597
-0.975783
-0.0190221
-0.787486
-0.0174478
-0.63953
-0.0160369
-0.524784
-0.0148579
-0.437178
-0.0137147
-0.371994
-0.0125138
-0.325812
-0.0114691
-0.296211
-0.281671
-0.0105117
0.243362
-1235.7
0.192662
-1023.04
0.15096
-847.018
0.11666
-701.303
0.088433
-580.705
0.0651795
-480.88
0.0460149
-398.276
0.030197
-329.921
0.0171277
-273.379
0.0062985
-226.619
-0.00267859
-187.972
-0.0101479
-156.052
-0.0164002
-129.714
-0.0216332
-108.024
-0.0260763
-90.193
-0.0298722
-75.5932
-0.0331537
-63.6968
-0.0360596
-54.0751
-0.0386685
-46.3916
-0.0410628
-40.3624
-0.0433384
-35.7787
-0.0455183
-32.4712
-0.047606
-30.3222
-0.0495433
-29.2531
-0.051149
-29.1151
-0.0515808
-23.1995
-0.0509948
-18.4766
-0.0496147
-14.7117
-0.0476002
-11.7093
-0.045188
-9.31948
-0.0425122
-7.41747
-0.0397758
-5.90549
-0.0368453
-4.70224
-0.0343001
-3.74622
-0.0314048
-2.98502
-0.0288745
-2.38099
-0.0268743
-1.90108
-0.02422
-1.51932
-0.0226703
-1.21752
-0.0205881
-0.977818
-0.0188427
-0.789166
-0.0171141
-0.641144
-0.0156472
-0.526309
-0.014394
-0.438552
-0.0131241
-0.373216
-0.0118749
-0.326935
-0.0108654
-0.297259
-0.282759
-0.00989509
0.27248
-1235.63
0.216147
-1022.98
0.169887
-846.972
0.131908
-701.265
0.100704
-580.673
0.0750388
-480.855
0.053914
-398.255
0.0364984
-329.904
0.0221233
-273.365
0.0102195
-226.607
0.000352975
-187.962
-0.0078584
-156.044
-0.0147371
-129.708
-0.0205056
-108.018
-0.0254158
-90.1881
-0.0296287
-75.589
-0.0332926
-63.6932
-0.0365623
-54.0718
-0.0395274
-46.3886
-0.0422838
-40.3596
-0.044938
-35.776
-0.0475209
-32.4686
-0.050042
-30.3196
-0.052437
-29.2507
-0.0544959
-29.1131
-0.0551541
-23.1989
-0.0546019
-18.4772
-0.0530978
-14.7132
-0.050848
-11.7117
-0.0481232
-9.32228
-0.0450928
-7.42051
-0.041992
-5.9087
-0.0386889
-4.70546
-0.0357883
-3.74938
-0.0326014
-2.98819
-0.0297473
-2.3838
-0.0274167
-1.90371
-0.0246124
-1.52195
-0.0226849
-1.21978
-0.0204506
-0.980002
-0.0184498
-0.791062
-0.0166315
-0.642937
-0.0151411
-0.527943
-0.0137961
-0.439981
-0.0124255
-0.374477
-0.0111896
-0.328091
-0.0102379
-0.298331
-0.283865
-0.00923715
0.302595
-1235.56
0.240463
-1022.92
0.189539
-846.921
0.147813
-701.223
0.113593
-580.639
0.0854972
-480.827
0.0624078
-398.232
0.043399
-329.885
0.027724
-273.349
0.0147544
-226.594
0.00400671
-187.951
-0.00493964
-156.035
-0.0124408
-129.7
-0.0187445
-108.012
-0.0241255
-90.1827
-0.0287641
-75.5844
-0.0328243
-63.6891
-0.036478
-54.0682
-0.0398263
-46.3852
-0.0429799
-40.3565
-0.0460569
-35.773
-0.0490971
-32.4655
-0.0521177
-30.3166
-0.0550475
-29.2478
-0.0576463
-29.1105
-0.0585846
-23.198
-0.0580935
-18.4777
-0.0564708
-14.7149
-0.0539787
-11.7143
-0.0509247
-9.32543
-0.04752
-7.42394
-0.0440339
-5.9123
-0.040342
-4.70907
-0.0370667
-3.7529
-0.0335754
-2.99169
-0.0303949
-2.38699
-0.0277264
-1.9067
-0.0247639
-1.52489
-0.022485
-1.2223
-0.0200752
-0.982354
-0.0178982
-0.793173
-0.0160527
-0.64488
-0.014536
-0.529652
-0.013089
-0.441452
-0.0116681
-0.375777
-0.0104993
-0.32928
-0.0096095
-0.299426
-0.284976
-0.00858261
0.333814
-1235.48
0.26571
-1022.85
0.210007
-846.865
0.164464
-701.178
0.127189
-580.602
0.0966485
-480.796
0.0715916
-398.207
0.050997
-329.864
0.0340336
-273.332
0.020011
-226.58
0.00839456
-187.939
-0.00127744
-156.025
-0.00939453
-129.692
-0.0162315
-108.005
-0.0220864
-90.1768
-0.0271593
-75.5793
-0.0316308
-63.6846
-0.0356911
-54.0641
-0.0394529
-46.3815
-0.0430435
-40.3529
-0.0465937
-35.7694
-0.0501535
-32.462
-0.053749
-30.313
-0.0573032
-29.2442
-0.0605426
-29.1073
-0.0618249
-23.1967
-0.0614297
-18.4782
-0.0596994
-14.7167
-0.056962
-11.7171
-0.0535654
-9.32892
-0.0497699
-7.42776
-0.0458801
-5.91631
-0.0417865
-4.71309
-0.0381215
-3.7568
-0.0343156
-2.99554
-0.030812
-2.39057
-0.0278093
-1.91006
-0.0246819
-1.52809
-0.0220866
-1.22505
-0.0195113
-0.984869
-0.0172491
-0.795446
-0.0154163
-0.646903
-0.0138543
-0.531382
-0.0123244
-0.442932
-0.0109262
-0.37708
-0.00986492
-0.330458
-0.00902086
-0.3005
-0.286057
-0.00795531
0.366259
-1235.38
0.291998
-1022.77
0.231389
-846.804
0.181954
-701.128
0.141592
-580.561
0.108592
-480.763
0.0815752
-398.18
0.059405
-329.842
0.0411719
-273.314
0.0261145
-226.565
0.0136458
-187.927
0.00326185
-156.015
-0.00546228
-129.683
-0.0128281
-107.998
-0.0191591
-90.1705
-0.0246751
-75.5738
-0.029574
-63.6797
-0.0340655
-54.0596
-0.0382748
-46.3772
-0.0423474
-40.3488
-0.0464278
-35.7653
-0.0505783
-32.4578
-0.0548349
-30.3088
-0.0591159
-29.2399
-0.0631128
-29.1033
-0.0648151
-23.195
-0.0645592
-18.4785
-0.0627387
-14.7186
-0.059758
-11.7202
-0.0560097
-9.33278
-0.0518106
-7.432
-0.0475023
-5.92075
-0.0429989
-4.71753
-0.0389345
-3.76111
-0.0348074
-2.99978
-0.0309912
-2.39457
-0.0276696
-1.91377
-0.0243733
-1.53151
-0.0215043
-1.22799
-0.0188072
-0.987515
-0.0165399
-0.797807
-0.0147261
-0.648934
-0.013097
-0.533086
-0.011523
-0.444384
-0.0102084
-0.37835
-0.0092596
-0.331595
-0.00842465
-0.301529
-0.287091
-0.00730995
0.400056
-1235.29
0.319433
-1022.69
0.253796
-846.739
0.200399
-701.075
0.156913
-580.518
0.121452
-480.728
0.0924802
-398.151
0.0687594
-329.818
0.0492793
-273.295
0.0332117
-226.549
0.0199133
-187.914
0.00883591
-156.004
-0.000482363
-129.674
-0.00837089
-107.99
-0.0151782
-90.1637
-0.0211456
-75.5678
-0.0264895
-63.6744
-0.0314392
-54.0547
-0.0361339
-46.3725
-0.0407388
-40.3442
-0.0454138
-35.7606
-0.050235
-32.453
-0.0552512
-30.3038
-0.0603762
-29.2348
-0.0652649
-29.0984
-0.0674763
-23.1929
-0.0674131
-18.4786
-0.0655274
-14.7205
-0.0623119
-11.7235
-0.0582078
-9.337
-0.0535973
-7.43666
-0.0488606
-5.92562
-0.0439447
-4.7224
-0.0394775
-3.76584
-0.0350287
-3.00442
-0.0309172
-2.39897
-0.0273014
-1.91779
-0.0238343
-1.5351
-0.0207456
-1.23107
-0.0179937
-0.990251
-0.0157743
-0.800184
-0.0139603
-0.650915
-0.0122627
-0.53473
-0.0107052
-0.445784
-0.00951961
-0.379569
-0.00866825
-0.332675
-0.00782311
-0.302498
-0.288055
-0.0066978
0.435322
-1235.18
0.348123
-1022.61
0.277316
-846.668
0.21988
-701.018
0.173236
-580.471
0.135308
-480.69
0.104403
-398.12
0.0791538
-329.793
0.0584571
-273.274
0.0414096
-226.532
0.0273083
-187.899
0.0155595
-155.992
0.00566335
-129.664
-0.002739
-107.981
-0.0100228
-90.1564
-0.0164504
-75.5614
-0.0222576
-63.6686
-0.0276959
-54.0493
-0.0329185
-46.3673
-0.0381124
-40.339
-0.0434549
-35.7553
-0.0490377
-32.4474
-0.0549248
-30.2979
-0.0610274
-29.2287
-0.0669623
-29.0925
-0.0697871
-23.1901
-0.0699822
-18.4785
-0.0680654
-14.7225
-0.0646313
-11.7271
-0.0601736
-9.34157
-0.05515
-7.44174
-0.0499812
-5.93093
-0.0446567
-4.72771
-0.0397908
-3.771
-0.0350273
-3.00947
-0.0306442
-2.40372
-0.026763
-1.92205
-0.0231299
-1.53881
-0.0198905
-1.23426
-0.0171562
-0.993037
-0.0150006
-0.80253
-0.0131613
-0.652826
-0.0114301
-0.536309
-0.00996749
-0.447127
-0.00894094
-0.380729
-0.00815798
-0.333699
-0.00727673
-0.303416
-0.288968
-0.0061427
0.472197
-1235.06
0.378187
-1022.51
0.302068
-846.592
0.240516
-700.956
0.190692
-580.421
0.150303
-480.649
0.117485
-398.087
0.0907452
-329.766
0.0688708
-273.252
0.0508814
-226.514
0.036012
-187.885
0.02362
-155.98
0.0131666
-129.654
0.00426206
-107.972
-0.00349531
-90.1487
-0.0103916
-75.5545
-0.0166824
-63.6623
-0.0226418
-54.0433
-0.0284391
-46.3615
-0.0342854
-40.3332
-0.0403765
-35.7492
-0.0468232
-32.441
-0.0537067
-30.291
-0.0609386
-29.2215
-0.068096
-29.0854
-0.0716555
-23.1865
-0.0721874
-18.4781
-0.0702845
-14.7245
-0.0666566
-11.7309
-0.0618552
-9.34649
-0.0564243
-7.44723
-0.0508273
-5.93667
-0.0451055
-4.73346
-0.0398537
-3.77659
-0.0347915
-3.01491
-0.0301646
-2.40877
-0.0260472
-1.92647
-0.0222662
-1.5426
-0.0189581
-1.23753
-0.0162963
-0.995826
-0.0141876
-0.804818
-0.0123115
-0.654677
-0.0106079
-0.537847
-0.00930426
-0.448433
-0.00843313
-0.38185
-0.0076788
-0.334686
-0.0067481
-0.304302
-0.289853
-0.00562857
0.510819
-1234.94
0.409754
-1022.41
0.328175
-846.51
0.262434
-700.89
0.209405
-580.368
0.166568
-480.606
0.131873
-398.052
0.103686
-329.738
0.0806824
-273.229
0.0617982
-226.495
0.0462026
-187.869
0.0332023
-155.967
0.0222171
-129.643
0.0128262
-107.963
0.00459899
-90.1405
-0.00277359
-75.5472
-0.00956915
-63.6555
-0.0160859
-54.0368
-0.0225099
-46.3551
-0.0290785
-40.3266
-0.0360092
-35.7422
-0.0434342
-32.4335
-0.0514557
-30.283
-0.0599874
-29.213
-0.068568
-29.0769
-0.0730026
-23.1821
-0.0739654
-18.4772
-0.0721335
-14.7264
-0.0683473
-11.7348
-0.063221
-9.35173
-0.0573977
-7.45313
-0.0513852
-5.94283
-0.0452861
-4.73963
-0.0396706
-3.7826
-0.0343354
-3.02069
-0.0294936
-2.41401
-0.0251695
-1.93098
-0.0212771
-1.54643
-0.0179828
-1.24082
-0.0154207
-0.998568
-0.0133374
-0.807029
-0.0114547
-0.656472
-0.00986366
-0.539344
-0.00876279
-0.449698
-0.00802182
-0.382927
-0.00726632
-0.335628
-0.0063048
-0.30514
-0.29068
-0.00525481
0.551332
-1234.8
0.442958
-1022.3
0.355765
-846.423
0.285762
-700.82
0.22951
-580.312
0.184247
-480.561
0.147721
-398.016
0.118141
-329.709
0.0940678
-273.205
0.0743453
-226.475
0.0580739
-187.853
0.0445066
-155.953
0.0330209
-129.631
0.0231628
-107.953
0.0144725
-90.1318
0.00661563
-75.5393
-0.000706632
-63.6482
-0.00781977
-54.0297
-0.0149274
-46.348
-0.0222966
-40.3192
-0.0301681
-35.7344
-0.038699
-32.425
-0.0480166
-30.2737
-0.0580406
-29.203
-0.0682716
-29.0667
-0.0737428
-23.1767
-0.0752477
-18.4758
-0.0735582
-14.7281
-0.0696612
-11.7389
-0.0642395
-9.35726
-0.0580493
-7.4594
-0.0516446
-5.94939
-0.0451971
-4.74622
-0.0392504
-3.78897
-0.0336754
-3.0267
-0.0286455
-2.41934
-0.0241486
-1.9355
-0.0202003
-1.55026
-0.0169868
-1.24408
-0.0145226
-1.00122
-0.0124557
-0.809154
-0.0106294
-0.658206
-0.0092286
-0.540788
-0.00833676
-0.450904
-0.00767836
-0.383943
-0.00689113
-0.336513
-0.00590994
-0.305925
-0.291451
-0.00494546
0.593895
-1234.66
0.477935
-1022.19
0.384967
-846.33
0.310631
-700.746
0.251152
-580.253
0.203495
-480.514
0.16519
-397.977
0.134288
-329.678
0.109216
-273.18
0.0887219
-226.455
0.071834
-187.836
0.0577493
-155.939
0.0458
-129.619
0.0354984
-107.943
0.0263537
-90.1226
0.0180065
-75.531
0.0101332
-63.6403
0.0023812
-54.022
-0.00547315
-46.3401
-0.0137288
-40.311
-0.022653
-35.7254
-0.0324316
-32.4152
-0.0432217
-30.2629
-0.0549534
-29.1912
-0.067091
-29.0546
-0.0737837
-23.17
-0.0759612
-18.4738
-0.0745018
-14.7297
-0.0705551
-11.7431
-0.0648805
-9.36303
-0.0583608
-7.46601
-0.0515986
-5.95633
-0.0448411
-4.75317
-0.0386051
-3.79563
-0.0328271
-3.03285
-0.0276326
-2.42466
-0.0230065
-1.93997
-0.0190729
-1.55404
-0.0159869
-1.24724
-0.0136062
-1.00377
-0.0115706
-0.811197
-0.00987154
-0.65988
-0.00870028
-0.542172
-0.00797979
-0.452047
-0.00734474
-0.384902
-0.00650656
-0.337347
-0.00552607
-0.306666
-0.29218
-0.00466659
0.638669
-1234.5
0.514836
-1022.06
0.415932
-846.231
0.337194
-700.667
0.274482
-580.19
0.224475
-480.464
0.184463
-397.937
0.152316
-329.646
0.126328
-273.154
0.105141
-226.434
0.0877066
-187.818
0.0731618
-155.925
0.0607925
-129.607
0.0500757
-107.932
0.0404883
-90.1131
0.0316442
-75.5222
0.0231951
-63.6318
0.0147581
-54.0136
0.00608873
-46.3315
-0.00314843
-40.3018
-0.0132488
-35.7153
-0.0244323
-32.4041
-0.0368905
-30.2505
-0.0505695
-29.1776
-0.0649018
-29.0403
-0.0730268
-23.1619
-0.0760291
-18.4709
-0.0749054
-14.7309
-0.070986
-11.7472
-0.0651153
-9.36899
-0.058317
-7.47292
-0.0512445
-5.96359
-0.0442244
-4.76043
-0.0377486
-3.8025
-0.0318038
-3.03902
-0.0264688
-2.4299
-0.0217723
-1.94439
-0.0179281
-1.55776
-0.0149949
-1.2503
-0.0126909
-1.00621
-0.0107315
-0.81317
-0.00922642
-0.661501
-0.00828692
-0.543502
-0.00767906
-0.453139
-0.00702058
-0.385815
-0.00613695
-0.338144
-0.00519373
-0.307373
-0.292874
-0.00446547
0.685819
-1234.34
0.553814
-1021.93
0.448803
-846.126
0.365599
-700.584
0.299666
-580.124
0.247361
-480.411
0.205723
-397.896
0.172429
-329.612
0.14562
-273.127
0.12383
-226.412
0.105928
-187.8
0.0909896
-155.91
0.0782508
-129.594
0.0671516
-107.921
0.0571364
-90.1031
0.0477903
-75.5128
0.0387389
-63.6228
0.0295671
-54.0044
0.0200074
-46.3219
0.00968543
-40.2915
-0.00172684
-35.7039
-0.0144884
-32.3913
-0.0288307
-30.2361
-0.0447233
-29.1617
-0.0615718
-29.0235
-0.0713678
-23.1522
-0.0753709
-18.467
-0.074709
-14.7316
-0.0709116
-11.7512
-0.0649181
-9.37506
-0.0579067
-7.48007
-0.0505835
-5.97112
-0.0433571
-4.76792
-0.0366954
-3.80947
-0.0306183
-3.04515
-0.0251777
-2.43506
-0.0204881
-1.94874
-0.0167993
-1.56141
-0.0140234
-1.25327
-0.0118007
-1.00859
-0.00997432
-0.815106
-0.00870341
-0.66309
-0.00796018
-0.544799
-0.00739645
-0.4542
-0.00668206
-0.386707
-0.00576978
-0.338924
-0.00489435
-0.308066
-0.293554
-0.00430371
0.735533
-1234.16
0.595035
-1021.79
0.483746
-846.015
0.396011
-700.496
0.32687
-580.055
0.27234
-480.357
0.22917
-397.853
0.194838
-329.578
0.167316
-273.1
0.145027
-226.39
0.126749
-187.782
0.111491
-155.894
0.0984408
-129.581
0.0869978
-107.91
0.076572
-90.0926
0.0667196
-75.503
0.0570383
-63.6131
0.0470777
-53.9945
0.036547
-46.3114
0.0250268
-40.28
0.0121541
-35.691
-0.00237529
-32.3768
-0.0188393
-30.2197
-0.0372393
-29.1433
-0.0569619
-29.0039
-0.0686978
-23.1404
-0.0739037
-18.462
-0.0738521
-14.7317
-0.0702911
-11.7549
-0.0642667
-9.38115
-0.0571226
-7.48737
-0.0496212
-5.97885
-0.0422528
-4.77556
-0.0354612
-3.81645
-0.0292879
-3.05118
-0.0237971
-2.44015
-0.019208
-1.95306
-0.0157273
-1.56501
-0.0131058
-1.25618
-0.0109873
-1.01094
-0.00934906
-0.817023
-0.0083199
-0.66465
-0.00771425
-0.54606
-0.00713383
-0.455231
-0.00635037
-0.387572
-0.00543336
-0.339681
-0.00464724
-0.308739
-0.294215
-0.0041873
0.787996
-1233.98
0.638671
-1021.64
0.520923
-845.897
0.428602
-700.404
0.356282
-579.982
0.299601
-480.3
0.255012
-397.808
0.219761
-329.543
0.191653
-273.071
0.16898
-226.367
0.150428
-187.764
0.134937
-155.879
0.12164
-129.568
0.109897
-107.898
0.0990815
-90.0819
0.0887191
-75.4927
0.0783783
-63.6028
0.0675716
-53.9837
0.0559813
-46.2998
0.0431403
-40.2672
0.0286454
-35.6765
0.0121415
-32.3603
-0.00670395
-30.2009
-0.0279339
-29.1221
-0.0509263
-28.981
-0.0649037
-23.1265
-0.0715427
-18.4556
-0.0722745
-14.731
-0.0690864
-11.7584
-0.0631426
-9.38714
-0.0559618
-7.49474
-0.0483674
-5.98667
-0.0409285
-4.78324
-0.0340643
-3.82336
-0.0278408
-3.05712
-0.0223788
-2.4452
-0.0179853
-1.95736
-0.0147448
-1.56856
-0.0122749
-1.25905
-0.0102932
-1.01326
-0.00887488
-0.818906
-0.00805341
-0.666166
-0.00750965
-0.547275
-0.006865
-0.456222
-0.00601806
-0.388407
-0.00512679
-0.340413
-0.00444744
-0.309392
-0.294858
-0.00410737
0.843406
-1233.77
0.684907
-1021.48
0.560515
-845.772
0.46355
-700.307
0.388083
-579.907
0.329347
-480.241
0.283463
-397.762
0.247433
-329.507
0.218876
-273.043
0.195948
-226.344
0.177236
-187.745
0.161606
-155.863
0.148134
-129.554
0.13614
-107.886
0.124959
-90.0707
0.114084
-75.4818
0.103053
-63.5918
0.0913384
-53.9721
0.078594
-46.2871
0.064299
-40.2529
0.0480072
-35.6602
0.029304
-32.3416
0.00779453
-30.1794
-0.0166173
-29.0977
-0.0433146
-28.9544
-0.0598692
-23.11
-0.068202
-18.4474
-0.0699173
-14.7293
-0.0672619
-11.7612
-0.0615312
-9.39291
-0.0544258
-7.50207
-0.0468354
-5.99449
-0.0394042
-4.79088
-0.032529
-3.83016
-0.0263201
-3.06296
-0.0209859
-2.45024
-0.0168663
-1.96163
-0.0138699
-1.57206
-0.0115454
-1.26185
-0.0097262
-1.01551
-0.00852593
-0.820712
-0.00784686
-0.667597
-0.00728873
-0.548413
-0.00655087
-0.457147
-0.00565869
-0.389184
-0.00482187
-0.341093
-0.0042581
-0.309999
-0.295457
-0.00402259
0.901979
-1233.56
0.733933
-1021.31
0.602706
-845.641
0.501043
-700.205
0.422471
-579.828
0.361782
-480.181
0.314742
-397.715
0.278089
-329.47
0.249234
-273.014
0.226192
-226.321
0.207445
-187.726
0.19178
-155.848
0.178215
-129.541
0.166023
-107.874
0.154504
-90.0592
0.143115
-75.4705
0.131361
-63.58
0.118672
-53.9594
0.104672
-46.2731
0.0887807
-40.2371
0.0705036
-35.642
0.0493586
-32.3205
0.0248797
-30.1549
-0.00309558
-29.0697
-0.033973
-28.9236
-0.0534761
-23.0905
-0.0637957
-18.4373
-0.0667232
-14.7264
-0.0647861
-11.7634
-0.0594221
-9.39831
-0.0525202
-7.50922
-0.0450426
-6.00219
-0.0377039
-4.79835
-0.0308873
-3.83679
-0.0247801
-3.06872
-0.0196809
-2.45524
-0.0158837
-1.96584
-0.0131091
-1.57545
-0.0109165
-1.26455
-0.00926733
-1.01766
-0.00825228
-0.822411
-0.00764037
-0.668933
-0.00701149
-0.549477
-0.00617817
-0.458019
-0.00527218
-0.389923
-0.00451676
-0.341744
-0.00407033
-0.310586
-0.296042
-0.00391985
0.963948
-1233.34
0.785978
-1021.14
0.647725
-845.503
0.541319
-700.099
0.459697
-579.747
0.397179
-480.118
0.349139
-397.667
0.312028
-329.433
0.283044
-272.985
0.260046
-226.298
0.241401
-187.708
0.225814
-155.832
0.212244
-129.527
0.199916
-107.862
0.188089
-90.0474
0.176185
-75.4586
0.163676
-63.5675
0.149943
-53.9458
0.13458
-46.2577
0.116939
-40.2195
0.0964748
-35.6215
0.0726283
-32.2967
0.0448533
-30.1272
0.0129029
-29.0378
-0.0226691
-28.8882
-0.0455269
-23.0676
-0.0581597
-18.4249
-0.0625585
-14.7219
-0.0615514
-11.7646
-0.0567294
-9.40316
-0.0501748
-7.51606
-0.0429294
-6.00963
-0.0357757
-4.80558
-0.0290995
-3.84323
-0.0231974
-3.07437
-0.0184261
-2.46016
-0.0149591
-1.9699
-0.0123625
-1.57868
-0.0102826
-1.2671
-0.00879026
-1.01968
-0.00790671
-0.823994
-0.00729388
-0.670176
-0.00656732
-0.550473
-0.00566221
-0.458842
-0.00478295
-0.390627
-0.00413295
-0.342368
-0.00380091
-0.311154
-0.29661
-0.0037167
1.02954
-1233.1
0.841234
-1020.95
0.695742
-845.357
0.584537
-699.988
0.499923
-579.662
0.435698
-480.054
0.386818
-397.618
0.349433
-329.396
0.320497
-272.956
0.297706
-226.275
0.279309
-187.689
0.263923
-155.817
0.25044
-129.514
0.23804
-107.849
0.225938
-90.0353
0.213518
-75.4462
0.200218
-63.5543
0.185368
-53.931
0.168526
-46.2409
0.148974
-40.2
0.126108
-35.5986
0.0992824
-32.2699
0.0678606
-30.0958
0.0314965
-29.0014
-0.009323
-28.8475
-0.0359787
-23.0409
-0.051286
-18.4099
-0.0574474
-14.7157
-0.0576096
-11.7647
-0.0535263
-9.40728
-0.0474792
-7.52241
-0.040596
-6.01668
-0.0337285
-4.81247
-0.0272895
-3.84942
-0.0217004
-3.07986
-0.0173155
-2.46492
-0.0141447
-1.97377
-0.0116754
-1.58174
-0.00969396
-1.26951
-0.0083364
-1.02158
-0.00752284
-0.825501
-0.00685064
-0.67138
-0.00601559
-0.55146
-0.00506815
-0.459676
-0.00424941
-0.391353
-0.0037186
-0.343021
-0.0034933
-0.311759
-0.297219
-0.00345931
1.09898
-1232.84
0.899901
-1020.75
0.746943
-845.204
0.630874
-699.872
0.543317
-579.574
0.477513
-479.988
0.427966
-397.569
0.390487
-329.358
0.361784
-272.927
0.339375
-226.253
0.321377
-187.671
0.306317
-155.802
0.293021
-129.5
0.280614
-107.837
0.268271
-90.023
0.255334
-75.4333
0.241206
-63.5402
0.225158
-53.915
0.206716
-46.2225
0.185081
-40.1784
0.159586
-35.5731
0.129488
-32.2398
0.0940476
-30.0604
0.0528031
-28.9602
0.00614622
-28.8009
-0.0247853
-23.01
-0.0431626
-18.3917
-0.0514111
-14.7074
-0.0530096
-11.7634
-0.0498831
-9.41043
-0.0445199
-7.52809
-0.0381393
-6.0232
-0.0316687
-4.81891
-0.0255756
-3.85532
-0.0203979
-3.08514
-0.0164188
-2.46945
-0.0134872
-1.97741
-0.0111077
-1.5846
-0.00923052
-1.27178
-0.00800191
-1.02338
-0.00722719
-0.82693
-0.00648137
-0.672534
-0.00556291
-0.552416
-0.00461526
-0.46049
-0.00388381
-0.392066
-0.00347082
-0.343665
-0.00333099
-0.312358
-0.297822
-0.00332243
1.17255
-1232.57
0.962237
-1020.54
0.801571
-845.044
0.680574
-699.751
0.590131
-579.484
0.522883
-479.921
0.472844
-397.518
0.435469
-329.321
0.407194
-272.899
0.385346
-226.231
0.367909
-187.654
0.353309
-155.787
0.340301
-129.487
0.32796
-107.824
0.31541
-90.0105
0.301956
-75.42
0.286959
-63.5252
0.269633
-53.8978
0.249463
-46.2023
0.225566
-40.1546
0.197204
-35.5448
0.163524
-32.2062
0.123673
-30.0206
0.0770566
-28.9136
0.0239379
-28.748
-0.0117767
-22.9742
-0.0336512
-18.3701
-0.0443438
-14.6966
-0.0476728
-11.7603
-0.0457422
-9.41239
-0.0412548
-7.53291
-0.0355269
-6.02902
-0.0295724
-4.8248
-0.0239383
-3.86085
-0.0192472
-3.09012
-0.0156607
-2.4737
-0.0129131
-1.9808
-0.0106098
-1.58728
-0.00884601
-1.27392
-0.00772491
-1.0251
-0.00694863
-0.828325
-0.00611569
-0.673689
-0.00513669
-0.553397
-0.00422039
-0.461343
-0.0035898
-0.392825
-0.00328412
-0.344359
-0.00320529
-0.313013
-0.298478
-0.0031988
1.25053
-1232.28
1.02849
-1020.32
0.859856
-844.875
0.733853
-699.625
0.640577
-579.391
0.572016
-479.852
0.521665
-397.468
0.484595
-329.284
0.456946
-272.872
0.435847
-226.21
0.419134
-187.637
0.405131
-155.773
0.392518
-129.475
0.380313
-107.812
0.367595
-89.9978
0.353621
-75.4061
0.337714
-63.5093
0.319024
-53.8792
0.296994
-46.1803
0.270646
-40.1284
0.23917
-35.5133
0.201586
-32.1686
0.156917
-29.976
0.104411
-28.8611
0.0441803