/*--------------------------------*- C++ -*----------------------------------*\
| =========                 |                                                 |
| \\      /  F ield         | OpenFOAM: The Open Source CFD Toolbox           |
|  \\    /   O peration     | Version:  2406                                  |
|   \\  /    A nd           | Website:  www.openfoam.com                      |
|    \\/     M anipulation  |                                                 |
\*---------------------------------------------------------------------------*/
FoamFile
{
    version     2.0;
    format      ascii;
    arch        "LSB;label=32;scalar=64";
    class       volVectorField;
    location    "5";
    object      U;
}
// * * * * * * * * * * * * * * * * * * * * * * * * * * * * * * * * * * * * * //

dimensions      [0 1 -1 0 0 0 0];

internalField   nonuniform List<vector> 
38016
(
(52.0586 -0.00183679 3.85339e-26)
(52.0532 8.64047e-05 -1.81103e-25)
(52.0564 0.000266278 2.18742e-25)
(52.0509 0.000391523 0)
(52.0603 0.000714729 0)
(52.0528 0.00114158 0)
(52.058 0.00139671 2.45848e-25)
(52.0556 0.00188287 2.10578e-21)
(52.059 0.00248872 1.72425e-26)
(52.058 0.00320375 -2.08007e-26)
(52.0613 0.00365571 -1.1543e-21)
(52.0614 0.00483835 6.22127e-25)
(52.063 0.00549253 -2.32646e-21)
(52.0648 0.00660393 -4.1287e-21)
(52.0634 0.00775303 2.98858e-21)
(52.0634 0.00881182 0)
(52.0631 0.0117124 0)
(52.0584 0.0138548 0)
(52.0596 0.0177231 -5.8086e-24)
(52.0534 0.0238255 6.67539e-24)
(52.0455 0.0308466 -1.97303e-21)
(52.0317 0.0429605 2.22687e-21)
(52.0143 0.061716 -2.34845e-21)
(51.9845 0.0889219 1.02092e-23)
(51.9268 0.140463 -2.66339e-21)
(51.8617 0.227271 5.03217e-26)
(51.8065 0.344085 -3.66574e-21)
(51.7319 0.490218 5.08665e-23)
(51.5999 0.657074 1.18161e-25)
(51.5173 0.841572 0)
(51.3688 1.04473 1.6817e-25)
(51.1388 1.24961 2.96611e-22)
(51.1497 1.46075 -1.31311e-20)
(51.1115 1.68523 0)
(51.1167 1.89616 0)
(50.954 2.12241 0)
(50.5293 2.33687 0)
(50.6213 2.46555 -4.11068e-21)
(50.6114 2.62361 -2.74932e-21)
(50.5748 2.77502 -1.63454e-22)
(50.297 2.80635 -9.9732e-23)
(50.6909 2.8483 8.37284e-21)
(50.5979 2.9602 -1.74265e-21)
(50.1506 2.95475 2.15366e-21)
(50.107 2.82349 0)
(50.2914 2.75292 0)
(50.2832 2.6434 -1.28118e-20)
(50.1504 2.69917 1.18021e-20)
(52.0563 -0.00187587 -3.85792e-21)
(52.0535 8.06842e-05 -7.24207e-25)
(52.0553 0.000264578 -1.61396e-20)
(52.0529 0.000358008 0)
(52.0569 0.000704118 0)
(52.0537 0.00114361 9.45709e-21)
(52.0563 0.00137992 -1.5421e-26)
(52.0556 0.00186974 -2.10612e-21)
(52.0582 0.00247005 1.08304e-21)
(52.0592 0.00317878 -1.45041e-25)
(52.0627 0.00361979 -8.79765e-22)
(52.065 0.00481389 -7.76126e-25)
(52.0674 0.00546227 2.32497e-21)
(52.0706 0.00660631 4.12575e-21)
(52.0699 0.0077986 -2.98539e-21)
(52.0705 0.00889066 8.28775e-21)
(52.0698 0.0119104 5.9429e-21)
(52.0652 0.01414 -8.44989e-24)
(52.0643 0.0181883 -1.11067e-24)
(52.0584 0.0246356 1.25967e-23)
(52.0507 0.0320979 5.66233e-21)
(52.039 0.0449069 -6.35473e-21)
(52.0269 0.0648859 2.35733e-21)
(52.0009 0.0940911 4.20248e-21)
(51.9513 0.149164 -2.11194e-21)
(51.8891 0.241806 -1.76182e-23)
(51.8194 0.366647 3.60555e-21)
(51.7296 0.523042 1.55602e-20)
(51.6087 0.700921 -1.51772e-20)
(51.4981 0.896969 0)
(51.3676 1.11286 0)
(51.2037 1.32617 1.71614e-20)
(51.1398 1.54428 1.27802e-20)
(51.0648 1.77305 -1.83635e-20)
(51.0373 1.98475 0)
(50.8908 2.21639 1.79891e-20)
(50.6825 2.4199 0)
(50.7231 2.53895 4.1163e-21)
(50.6584 2.67162 -5.50273e-21)
(50.6371 2.81218 6.84727e-21)
(50.429 2.82471 -9.01822e-21)
(50.5453 2.83008 -2.80863e-21)
(50.4782 2.93482 -1.76645e-21)
(50.3198 2.90802 2.15014e-21)
(50.24 2.73747 0)
(50.2176 2.63923 0)
(50.1593 2.51807 -9.70871e-21)
(49.9914 2.56819 1.19075e-20)
(52.0548 -0.00192139 -7.63978e-23)
(52.0539 6.58967e-05 0)
(52.0546 0.000251282 3.23462e-20)
(52.0542 0.0003439 0)
(52.0548 0.000698378 0)
(52.0544 0.00113449 -9.45705e-21)
(52.0552 0.00136966 1.26472e-25)
(52.0556 0.00185268 -1.75719e-25)
(52.0576 0.0024441 -1.08303e-21)
(52.0598 0.00314114 -1.22821e-25)
(52.0633 0.00356868 2.03527e-21)
(52.0669 0.0047709 4.47045e-21)
(52.0697 0.00541913 -7.91249e-21)
(52.0736 0.00659501 -7.18674e-24)
(52.0735 0.00782992 4.89035e-24)
(52.0748 0.00896253 -8.28304e-21)
(52.0741 0.0121147 -5.94178e-21)
(52.0696 0.0144537 9.39855e-25)
(52.0674 0.0187027 -9.40728e-24)
(52.0608 0.0254845 0)
(52.0543 0.0333919 -1.06259e-20)
(52.0426 0.0469845 4.1261e-21)
(52.0293 0.0682613 -3.92428e-21)
(52.0039 0.0995466 -7.9237e-21)
(51.9586 0.158325 5.37523e-22)
(51.8994 0.257215 0)
(51.8194 0.390413 1.35774e-20)
(51.724 0.557069 -1.54261e-20)
(51.6107 0.746398 1.50717e-20)
(51.4871 0.954117 0)
(51.3699 1.18159 7.79827e-22)
(51.2595 1.40493 1.49097e-20)
(51.1415 1.63179 3.21335e-21)
(51.0484 1.86523 1.37118e-20)
(50.9556 2.07591 -2.29573e-20)
(50.8576 2.30305 -1.79585e-20)
(50.8242 2.5011 0)
(50.7544 2.61591 -1.64497e-20)
(50.7376 2.73042 5.50092e-21)
(50.5936 2.85403 -6.84182e-21)
(50.5274 2.86516 1.80955e-20)
(50.4183 2.84402 -1.11832e-20)
(50.3795 2.89393 1.76604e-20)
(50.3784 2.86021 -4.01541e-21)
(50.2829 2.71754 2.01403e-22)
(50.1351 2.60592 -2.91998e-20)
(50.0338 2.46498 1.57973e-23)
(49.833 2.50974 -2.41842e-20)
(52.0549 -0.00197193 1.20579e-20)
(52.0539 5.23266e-05 0)
(52.0547 0.000236726 -1.62035e-20)
(52.0541 0.000331979 -2.76786e-24)
(52.0549 0.000688023 -3.12776e-20)
(52.0544 0.00112755 5.29378e-25)
(52.0553 0.00135766 9.72351e-21)
(52.0556 0.00183668 0)
(52.0576 0.00241784 2.78344e-21)
(52.0597 0.00310614 0)
(52.0633 0.00351973 3.02245e-21)
(52.0669 0.00473375 -4.47127e-21)
(52.0696 0.00538269 7.91267e-21)
(52.0735 0.00659314 2.89659e-24)
(52.0734 0.00787294 9.92846e-21)
(52.0747 0.00904941 1.48824e-20)
(52.074 0.0123401 -1.15411e-23)
(52.0696 0.0147946 1.35941e-23)
(52.0675 0.0192553 0)
(52.0608 0.0263864 -1.17939e-20)
(52.0545 0.0347721 1.34362e-20)
(52.0428 0.0491963 -7.0578e-21)
(52.0299 0.071864 1.09672e-20)
(52.0045 0.105414 3.74411e-21)
(51.9598 0.168231 4.20065e-21)
(51.9022 0.273907 6.43157e-23)
(51.8258 0.416252 -5.90428e-22)
(51.7332 0.594271 -2.99297e-20)
(51.6215 0.796345 2.97741e-20)
(51.5014 1.01712 0)
(51.3855 1.25776 0)
(51.2757 1.49274 -1.21156e-22)
(51.164 1.72943 -2.5478e-20)
(51.0771 1.96938 0)
(50.9872 2.18205 2.60031e-20)
(50.8883 2.40756 0)
(50.8416 2.60209 0)
(50.7727 2.71248 1.64033e-20)
(50.7357 2.81771 -1.03293e-20)
(50.5988 2.92909 -1.39155e-20)
(50.5425 2.93448 1.76295e-20)
(50.4374 2.89801 1.12695e-20)
(50.3585 2.91577 2.8247e-20)
(50.3129 2.87441 -3.38495e-20)
(50.2272 2.74657 0)
(50.1023 2.63089 -7.76621e-24)
(49.9844 2.4998 -5.51036e-20)
(49.7581 2.55515 5.46742e-20)
(52.0549 -0.00202405 -8.12411e-21)
(52.0539 3.84124e-05 2.92231e-24)
(52.0547 0.000222443 -3.25975e-20)
(52.0541 0.000319884 2.51808e-20)
(52.0549 0.000678362 3.12777e-20)
(52.0544 0.00112115 1.92478e-20)
(52.0553 0.00134653 9.99724e-21)
(52.0556 0.00182135 0)
(52.0576 0.00239264 -2.78351e-21)
(52.0597 0.00307214 2.42656e-26)
(52.0633 0.00347177 -3.02128e-21)
(52.0669 0.00469872 -7.0311e-25)
(52.0696 0.00534887 0)
(52.0735 0.00659558 3.60289e-24)
(52.0734 0.00792258 -9.93274e-21)
(52.0748 0.00914554 -1.48822e-20)
(52.0741 0.0125828 -1.02691e-20)
(52.0697 0.0151592 1.35537e-20)
(52.0677 0.0198445 0)
(52.061 0.0273445 2.29301e-20)
(52.0548 0.0362367 -6.49831e-21)
(52.0433 0.0515411 7.06963e-21)
(52.0307 0.0756878 -1.3331e-20)
(52.0058 0.111662 -1.24181e-23)
(51.9621 0.178847 1.24749e-23)
(51.9063 0.291899 6.11017e-23)
(51.8318 0.444268 -2.58129e-20)
(51.7419 0.634813 3.0103e-20)
(51.6336 0.850976 -4.28198e-22)
(51.5169 1.08625 0)
(51.4045 1.34152 -1.54373e-21)
(51.2989 1.58962 -3.20951e-20)
(51.1914 1.83744 2.54494e-20)
(51.1057 2.08555 0)
(51.0186 2.30227 0)
(50.9223 2.5276 -3.57974e-20)
(50.8741 2.72038 1.26557e-20)
(50.8036 2.82847 -1.58194e-20)
(50.7385 2.92834 -6.31912e-22)
(50.6216 3.02804 2.71563e-20)
(50.5705 3.03063 -1.77539e-20)
(50.4525 2.98929 -2.24358e-20)
(50.349 2.98204 -5.62652e-20)
(50.2822 2.93164 7.58557e-20)
(50.1948 2.81796 8.10429e-20)
(50.0705 2.70857 -9.23968e-20)
(49.935 2.60541 -6.44316e-21)
(49.699 2.6756 -6.87623e-21)
(52.0549 -0.00207831 0)
(52.0539 2.43431e-05 0)
(52.0547 0.000208215 3.25918e-20)
(52.0541 0.000307842 -2.51782e-20)
(52.0549 0.000669091 0)
(52.0544 0.00111548 -1.92479e-20)
(52.0553 0.00133616 -1.97222e-20)
(52.0556 0.00180702 6.54746e-25)
(52.0576 0.0023687 0)
(52.0597 0.00303973 0)
(52.0633 0.00342536 -3.94102e-21)
(52.0669 0.00466688 0)
(52.0696 0.00531882 0)
(52.0735 0.0066041 -1.17549e-20)
(52.0734 0.00798093 -1.73737e-20)
(52.0748 0.00925331 1.31855e-20)
(52.0742 0.0128464 1.02587e-20)
(52.0698 0.0155513 -2.6362e-20)
(52.0678 0.020475 -1.61459e-23)
(52.0612 0.0283662 -1.11161e-20)
(52.0551 0.0377924 1.12177e-20)
(52.0439 0.0540256 0)
(52.0315 0.0797326 6.26659e-21)
(52.0072 0.118263 0)
(51.9646 0.19007 0)
(51.9105 0.310935 -5.77916e-23)
(51.8384 0.473943 3.65523e-20)
(51.7515 0.677789 -2.85328e-20)
(51.647 0.908889 -2.93197e-20)
(51.5343 1.15948 0)
(51.426 1.43008 -4.14588e-20)
(51.3253 1.69187 -1.92594e-21)
(51.2229 1.95111 -5.38906e-20)
(51.1395 2.20768 -2.72251e-20)
(51.0557 2.42893 -1.29569e-20)
(50.9614 2.65417 7.99573e-20)
(50.9104 2.84541 -1.25989e-20)
(50.8382 2.9524 1.57427e-20)
(50.7555 3.04781 2.11932e-20)
(50.6509 3.1349 -4.20285e-20)
(50.5963 3.13661 5.25576e-20)
(50.4752 3.09744 4.52535e-20)
(50.3582 3.07301 -6.88248e-20)
(50.2687 3.01277 -8.45813e-21)
(50.1734 2.90879 8.08048e-20)
(50.0487 2.8102 -8.63342e-20)
(49.9058 2.7444 6.42784e-21)
(49.6783 2.83114 6.86049e-21)
(52.0549 -0.00213474 -1.0825e-24)
(52.0539 1.01292e-05 0)
(52.0547 0.000194072 -3.27898e-20)
(52.0541 0.000295876 5.58494e-24)
(52.0549 0.000660254 -3.89969e-24)
(52.0544 0.0011106 6.89155e-24)
(52.0553 0.00132661 2.02663e-20)
(52.0556 0.00179367 -2.03842e-20)
(52.0577 0.00234606 0)
(52.0598 0.00300891 3.00294e-21)
(52.0633 0.00338051 3.94118e-21)
(52.0669 0.00463838 9.69418e-25)
(52.0696 0.00529271 -1.16616e-24)
(52.0736 0.00661918 1.17553e-20)
(52.0734 0.00804872 1.73694e-20)
(52.0749 0.00937355 -1.3173e-20)
(52.0742 0.0131326 -8.41402e-24)
(52.0699 0.0159729 1.28215e-20)
(52.0679 0.0211497 1.52577e-23)
(52.0615 0.029456 0)
(52.0554 0.0394445 -1.12609e-20)
(52.0444 0.0566564 -1.04717e-20)
(52.0323 0.0840035 0)
(52.0085 0.12521 0)
(51.9671 0.20184 3.53745e-23)
(51.915 0.330853 -4.4377e-23)
(51.8454 0.504927 -2.39477e-20)
(51.7619 0.722568 2.85241e-20)
(51.6616 0.969094 5.5457e-22)
(51.5535 1.23535 -1.64576e-21)
(51.4498 1.52145 4.56787e-20)
(51.3545 1.79684 -6.6361e-20)
(51.2575 2.06717 4.7502e-20)
(51.177 2.33172 7.25854e-20)
(51.0965 2.55712 0)
(51.0038 2.7817 -3.56018e-20)
(50.9492 2.97072 -1.2527e-20)
(50.8751 3.07709 4.78148e-20)
(50.7829 3.16787 -4.2235e-20)
(50.6848 3.2421 2.74049e-20)
(50.6201 3.24399 0)
(50.4989 3.21038 1.1123e-20)
(50.3776 3.17579 5.74608e-23)
(50.2733 3.10822 -6.77756e-20)
(50.1676 3.01113 1.69968e-19)
(50.0417 2.92341 1.11826e-21)
(49.8974 2.89482 -1.0218e-19)
(49.6896 2.99473 1.37146e-20)
(52.0549 -0.00219342 1.82444e-20)
(52.0539 -4.23327e-06 4.0476e-20)
(52.0547 0.000180009 -3.29691e-20)
(52.0541 0.000283979 -5.08196e-20)
(52.0549 0.000651848 9.89342e-26)
(52.0544 0.00110649 -4.73517e-24)
(52.0553 0.00131784 -4.08103e-20)
(52.0556 0.0017813 2.03851e-20)
(52.0577 0.00232465 -4.44491e-25)
(52.0598 0.00297962 -3.00323e-21)
(52.0633 0.00333709 0)
(52.0669 0.00461317 -9.48199e-21)
(52.0696 0.00527052 -1.72509e-24)
(52.0736 0.00664098 2.07134e-24)
(52.0734 0.00812632 4.39114e-24)
(52.0749 0.00950682 2.29774e-20)
(52.0743 0.0134426 9.28111e-24)
(52.0699 0.0164258 -1.09316e-23)
(52.0681 0.0218709 0)
(52.0617 0.0306178 0)
(52.0557 0.0411975 0)
(52.045 0.0594386 1.05111e-20)
(52.0331 0.0885064 -4.55083e-24)
(52.01 0.132502 -2.58462e-21)
(51.9697 0.214143 0)
(51.9197 0.351599 0)
(51.853 0.537099 0)
(51.7732 0.768924 2.69698e-20)
(51.6775 1.03122 -5.55839e-20)
(51.5744 1.31334 5.2297e-20)
(51.4757 1.61488 3.67467e-20)
(51.3861 1.90357 7.51117e-20)
(51.2948 2.18443 4.39361e-20)
(51.2173 2.45625 -3.61732e-20)
(51.1398 2.68519 0)
(51.0483 2.90848 0)
(50.9897 3.09457 -2.28485e-20)
(50.9139 3.20029 -3.12749e-20)
(50.8178 3.28646 2.10404e-20)
(50.7219 3.34921 -2.7351e-20)
(50.6432 3.35208 7.0895e-20)
(50.5228 3.32445 -1.7633e-19)
(50.4028 3.28448 1.22254e-19)
(50.2918 3.21394 0)
(50.1782 3.1225 -1.60301e-19)
(50.0537 3.04289 1.82751e-19)
(49.913 3.04761 1.27806e-20)
(49.7289 3.15374 -1.36915e-20)
(52.0549 -0.00225443 -3.69821e-20)
(52.0539 -1.87559e-05 -4.0481e-20)
(52.0547 0.000166015 6.57558e-20)
(52.0541 0.000272137 5.08237e-20)
(52.0549 0.000643867 0)
(52.0544 0.00110315 -2.22548e-24)
(52.0553 0.00130985 -2.10848e-20)
(52.0556 0.00176984 0)
(52.0577 0.00230442 1.72869e-20)
(52.0598 0.00295179 0)
(52.0633 0.00329501 1.40112e-25)
(52.0669 0.00459121 9.48231e-21)
(52.0696 0.00525223 0)
(52.0736 0.00666971 0)
(52.0734 0.00821417 4.06415e-24)
(52.0749 0.00965373 -2.29946e-20)
(52.0744 0.0137778 7.39341e-24)
(52.07 0.0169115 -2.1362e-20)
(52.0682 0.0226411 0)
(52.0619 0.0318548 0)
(52.0561 0.0430555 0)
(52.0456 0.0623771 -1.47467e-23)
(52.034 0.0932459 1.57873e-23)
(52.0116 0.140144 2.56991e-21)
(51.9726 0.226971 0)
(51.9249 0.373148 0)
(51.8612 0.570401 2.01122e-20)
(51.7855 0.816751 -5.27584e-20)
(51.6948 1.0951 1.16321e-21)
(51.5972 1.39318 -5.03914e-20)
(51.5038 1.71 -4.2089e-20)
(51.4203 2.01155 6.54402e-20)
(51.3345 2.30231 -4.9668e-20)
(51.2601 2.58067 0)
(51.1852 2.81256 0)
(51.0948 3.03407 8.81546e-20)
(51.032 3.2166 -2.25888e-20)
(50.9553 3.32133 -3.18388e-20)
(50.8587 3.40341 4.14717e-20)
(50.7614 3.45764 2.6916e-20)
(50.6684 3.46211 -7.02972e-20)
(50.5491 3.43889 8.63211e-20)
(50.433 3.39615 0)
(50.3208 3.32703 0)
(50.2041 3.24116 -2.96044e-20)
(50.0834 3.16545 0)
(49.9492 3.19811 -2.54647e-20)
(49.7891 3.3034 0)
(52.0549 -0.00231783 1.87392e-20)
(52.0539 -3.34508e-05 0)
(52.0547 0.000152077 6.61594e-20)
(52.0541 0.000260339 5.11235e-20)
(52.0549 0.000636304 6.44618e-20)
(52.0544 0.00110058 4.49423e-24)
(52.0553 0.00130262 8.37985e-20)
(52.0556 0.00175929 3.94836e-24)
(52.0577 0.0022853 -1.72883e-20)
(52.0598 0.00292533 -4.91273e-25)
(52.0633 0.00325418 -5.15374e-22)
(52.067 0.00457247 0)
(52.0696 0.00523785 0)
(52.0736 0.00670561 0)
(52.0735 0.00831273 -1.2421e-20)
(52.075 0.00981497 1.96035e-20)
(52.0745 0.0141397 -1.5164e-20)
(52.0701 0.0174319 2.13736e-20)
(52.0684 0.0234626 -1.25958e-23)
(52.0622 0.0331706 0)
(52.0564 0.0450223 1.44864e-23)
(52.0462 0.0654756 -1.59578e-23)
(52.035 0.098225 0)
(52.0132 0.148131 -1.14086e-21)
(51.9757 0.24031 2.00731e-23)
(51.9304 0.395462 -2.51763e-23)
(51.87 0.604757 -2.03644e-20)
(51.7988 0.865911 8.89326e-22)
(51.7135 1.16052 5.33172e-20)
(51.6218 1.47456 5.01075e-20)
(51.5342 1.80638 2.94651e-21)
(51.4568 2.12028 -6.90787e-20)
(51.3767 2.42026 0)
(51.3052 2.7044 0)
(51.2324 2.93867 -4.99466e-20)
(51.1432 3.15805 -6.97048e-20)
(51.0766 3.33644 4.72222e-20)
(50.9999 3.4397 3.12354e-20)
(50.9038 3.51881 -3.64961e-22)
(50.8031 3.56823 -5.3484e-20)
(50.6982 3.57455 6.96099e-20)
(50.5813 3.55312 2.19986e-21)
(50.4697 3.50874 -7.97725e-20)
(50.3592 3.44391 -1.63678e-20)
(50.2449 3.36412 1.9667e-20)
(50.1308 3.28905 -1.82742e-19)
(50.0045 3.34403 4.17498e-19)
(49.8681 3.44145 -2.14663e-19)
(52.0549 -0.0023837 3.58471e-24)
(52.0539 -4.83295e-05 8.15838e-20)
(52.0547 0.000138184 -1.32506e-19)
(52.0541 0.00024857 -5.11298e-20)
(52.0549 0.000629152 -6.44673e-20)
(52.0544 0.00109877 -4.81331e-24)
(52.0553 0.00129613 -4.2175e-20)
(52.0557 0.00174959 -2.91274e-24)
(52.0577 0.00226726 4.56501e-25)
(52.0598 0.00290019 -5.507e-25)
(52.0633 0.0032145 -2.09827e-21)
(52.067 0.00455693 4.83842e-27)
(52.0696 0.00522737 0)
(52.0737 0.00674894 -1.44013e-20)
(52.0735 0.0084225 1.24192e-20)
(52.075 0.00999126 -1.95989e-20)
(52.0745 0.0145297 1.5158e-20)
(52.0702 0.0179889 1.84965e-20)
(52.0686 0.0243381 1.25893e-23)
(52.0625 0.0345686 -8.96425e-25)
(52.0568 0.0471013 -2.77106e-24)
(52.0469 0.0687374 5.60795e-21)
(52.036 0.103445 1.01131e-23)
(52.015 0.15646 1.14085e-21)
(51.9789 0.254139 0)
(51.9363 0.41849 -7.9166e-23)
(51.8796 0.640065 9.93234e-23)
(51.8131 0.916234 -2.38711e-20)
(51.7338 1.2272 6.71288e-22)
(51.6483 1.55712 -9.03881e-22)
(51.5668 1.90354 8.07115e-20)
(51.4958 2.22918 -6.8183e-20)
(51.421 2.53764 5.5942e-21)
(51.3523 2.82683 -7.91571e-20)
(51.2813 3.06291 6.16477e-20)
(51.1935 3.27988 0)
(51.1242 3.45367 0)
(51.0477 3.55514 3.05026e-20)
(50.9515 3.63285 -3.97073e-20)
(50.8467 3.68088 2.35287e-21)
(50.7352 3.68869 -1.69202e-19)
(50.622 3.66672 8.4521e-20)
(50.514 3.62122 -2.67565e-20)
(50.4066 3.56076 1.63402e-20)
(50.2992 3.48581 1.56495e-19)
(50.1951 3.40914 -1.7853e-19)
(50.0778 3.48122 0)
(49.9642 3.56236 -2.15249e-19)
(52.0549 -0.00245211 -4.04071e-20)
(52.054 -6.34038e-05 8.20154e-20)
(52.0547 0.000124327 6.63491e-20)
(52.0541 0.00023682 -1.02878e-19)
(52.0549 0.000622408 7.77276e-24)
(52.0544 0.00109771 8.01766e-20)
(52.0553 0.00129037 0)
(52.0557 0.00174073 -4.67584e-20)
(52.0577 0.00225023 -2.0983e-20)
(52.0598 0.00287628 -8.77465e-21)
(52.0633 0.00317589 7.32592e-21)
(52.067 0.00454463 -1.58651e-26)
(52.0696 0.00522081 0)
(52.0737 0.00679995 2.69877e-20)
(52.0735 0.00854399 1.98964e-20)
(52.0751 0.0101833 1.62193e-20)
(52.0746 0.0149494 -5.86417e-24)
(52.0703 0.0185843 -1.84978e-20)
(52.0688 0.0252697 0)
(52.0628 0.0360519 1.21614e-23)
(52.0572 0.0492955 -1.37169e-23)
(52.0477 0.0721646 -5.62468e-21)
(52.0371 0.108905 -7.27166e-24)
(52.0169 0.165118 -4.93384e-24)
(51.9824 0.268425 2.1891e-21)
(51.9426 0.442162 -5.91859e-21)
(51.8898 0.676198 1.61832e-20)
(51.8285 0.967511 9.50896e-20)
(51.7555 1.29485 2.01877e-21)
(51.6768 1.64042 -4.68249e-20)
(51.6017 2.00095 -8.50749e-20)
(51.5372 2.33763 9.44859e-22)
(51.4675 2.65382 9.47075e-20)
(51.4013 2.94736 6.96635e-20)
(51.3318 3.18468 -2.59232e-20)
(51.2461 3.39898 1.35251e-19)
(51.1753 3.5679 4.89175e-20)
(51.0986 3.66777 -6.02081e-20)
(51.0006 3.74577 4.04369e-20)
(50.8929 3.79437 8.0845e-20)
(50.781 3.8027 -2.33921e-19)
(50.6729 3.77933 1.66902e-19)
(50.5677 3.73341 -2.12793e-19)
(50.4645 3.67497 5.30589e-19)
(50.3663 3.60147 -3.04708e-19)
(50.274 3.52176 0)
(50.1663 3.60835 -4.23956e-19)
(50.073 3.66862 4.33614e-19)
(52.0549 -0.00252316 4.0408e-20)
(52.054 -7.86857e-05 -2.45642e-19)
(52.0547 0.000110493 6.67704e-20)
(52.0542 0.000225076 2.06045e-19)
(52.0549 0.000616067 0)
(52.0544 0.00109741 -8.01794e-20)
(52.0553 0.00128533 0)
(52.0557 0.00173268 4.67599e-20)
(52.0577 0.00223419 2.09828e-20)
(52.0598 0.00285356 8.77629e-21)
(52.0633 0.00313826 -1.15237e-20)
(52.067 0.00453562 1.08514e-21)
(52.0696 0.00521816 -6.39646e-21)
(52.0737 0.00685891 -1.25843e-20)
(52.0735 0.00867774 -1.98954e-20)
(52.0751 0.010392 -1.62191e-20)
(52.0747 0.0154004 0)
(52.0704 0.01922 0)
(52.069 0.02626 -1.05174e-23)
(52.0631 0.0376236 -1.17668e-20)
(52.0576 0.0516077 1.01792e-20)
(52.0485 0.0757582 0)
(52.0382 0.114601 0)
(52.0189 0.174093 0)
(51.9861 0.283128 -5.62942e-21)
(51.9493 0.466393 1.02058e-20)
(51.9006 0.713004 -1.63587e-20)
(51.845 1.0195 -4.65407e-20)
(51.7787 1.36311 0)
(51.7072 1.72401 0)
(51.6388 2.09804 -5.62079e-21)
(51.5807 2.445 6.97008e-20)
(51.5158 2.76817 -9.45913e-20)
(51.452 3.06538 1.8294e-20)
(51.3839 3.30336 -7.0847e-20)
(51.3013 3.51472 -6.72235e-20)
(51.2301 3.67885 -6.24939e-22)
(51.1522 3.77792 -6.06887e-20)
(51.0513 3.85752 0)
(50.9432 3.90676 2.07803e-19)
(50.8354 3.91431 -1.62501e-19)
(50.7331 3.88999 0)
(50.6312 3.84427 0)
(50.5337 3.78426 -1.59662e-20)
(50.4455 3.70764 0)
(50.3647 3.62303 -2.17886e-20)
(50.2663 3.72314 2.46187e-20)
(50.1916 3.76093 -1.31288e-20)
(52.0549 -0.0025969 -4.23306e-20)
(52.054 -9.41871e-05 -2.26436e-22)
(52.0547 9.66751e-05 6.71588e-20)
(52.0542 0.000213326 -2.06688e-19)
(52.0549 0.000610126 6.57749e-20)
(52.0544 0.00109786 9.78456e-24)
(52.0553 0.00128101 0)
(52.0557 0.00172539 -2.5973e-24)
(52.0577 0.00221907 3.13452e-24)
(52.0598 0.00283195 0)
(52.0633 0.0031015 -2.10017e-21)
(52.067 0.00452994 -1.08513e-21)
(52.0697 0.00521954 6.39706e-21)
(52.0738 0.00692608 -1.78803e-20)
(52.0736 0.00882426 0)
(52.0752 0.0106179 0)
(52.0748 0.0158842 0)
(52.0706 0.0198979 0)
(52.0692 0.0273111 9.48274e-24)
(52.0635 0.0392864 1.17694e-20)
(52.0581 0.0540399 -1.86091e-20)
(52.0493 0.0795179 -1.48683e-24)
(52.0395 0.120528 1.59167e-24)
(52.0211 0.183363 6.9476e-21)
(51.99 0.298197 3.43762e-21)
(51.9564 0.491079 -6.30898e-21)
(51.9123 0.7503 3.98617e-22)
(51.8627 1.07191 -5.00066e-22)
(51.8035 1.43158 4.71164e-20)
(51.7396 1.80737 0)
(51.6781 2.1942 0)
(51.6262 2.55064 -6.88949e-20)
(51.5658 2.88004 1.06541e-20)
(51.5042 3.18028 -1.79973e-20)
(51.438 3.41828 1.64631e-19)
(51.3593 3.62651 -6.51484e-20)
(51.288 3.78638 -4.48146e-20)
(51.2078 3.88589 6.11189e-20)
(51.1042 3.96762 -1.94774e-19)
(50.9986 4.01626 -1.0524e-19)
(50.8968 4.02201 2.85056e-20)
(50.7993 3.99751 3.6912e-19)
(50.7018 3.95179 -2.02332e-19)
(50.6115 3.88698 2.83522e-19)
(50.5323 3.80384 -2.96381e-19)
(50.4609 3.71223 -3.05112e-19)
(50.3702 3.8236 3.83332e-19)
(50.3119 3.83654 0)
(52.0549 -0.00267344 8.56216e-20)
(52.054 -0.00010992 1.64726e-19)
(52.0547 8.28622e-05 -1.3389e-19)
(52.0542 0.000201559 -3.07114e-22)
(52.0549 0.00060458 -6.57777e-20)
(52.0544 0.00109906 -9.83763e-24)
(52.0553 0.00127739 0)
(52.0557 0.00171886 -5.03714e-20)
(52.0577 0.00220485 -2.6153e-24)
(52.0598 0.00281139 3.15496e-24)
(52.0634 0.00306556 8.91241e-21)
(52.0671 0.00452766 -4.39172e-25)
(52.0697 0.00522505 -1.34166e-21)
(52.0738 0.00700172 3.64989e-21)
(52.0736 0.00898404 1.24733e-20)
(52.0753 0.0108619 3.65265e-24)
(52.075 0.0164021 -4.33463e-24)
(52.0707 0.0206198 0)
(52.0695 0.0284251 8.44912e-24)
(52.0639 0.0410427 -1.76525e-24)
(52.0587 0.0565935 8.42113e-21)
(52.0502 0.0834424 0)
(52.0408 0.126678 3.34215e-21)
(52.0233 0.192904 -1.58854e-20)
(51.9941 0.313571 -3.65839e-23)
(51.9639 0.516097 2.17361e-21)
(51.9246 0.787876 -1.19272e-20)
(51.8814 1.12444 9.25501e-22)
(51.8299 1.49981 -4.73185e-21)
(51.7739 1.88993 2.33094e-21)
(51.7194 2.28879 5.39322e-21)
(51.6736 2.65389 1.12656e-19)
(51.6172 2.98881 -8.95989e-20)
(51.558 3.29144 -1.76722e-20)
(51.4943 3.52881 -7.19609e-20)
(51.4198 3.73386 1.28938e-19)
(51.3483 3.89054 4.32964e-20)
(51.2647 3.99172 0)
(51.1602 4.07519 6.28517e-22)
(51.0593 4.12171 5.01523e-20)
(50.9631 4.12564 0)
(50.8692 4.10142 -4.06748e-20)
(50.7769 4.05426 2.49523e-20)
(50.6947 3.98237 -3.10101e-20)
(50.6237 3.89161 0)
(50.5601 3.79231 -2.14342e-20)
(50.4754 3.91341 0)
(50.4307 3.90111 0)
(52.0549 -0.00275283 -4.32842e-20)
(52.054 -0.000125897 -1.65237e-19)
(52.0547 6.90457e-05 1.34737e-19)
(52.0542 0.000189763 -1.04424e-19)
(52.0549 0.000599429 0)
(52.0544 0.00110102 0)
(52.0553 0.00127446 -9.0948e-20)
(52.0557 0.00171306 5.03734e-20)
(52.0577 0.00219148 0)
(52.0598 0.00279183 1.37389e-24)
(52.0634 0.00303034 -1.65637e-24)
(52.0671 0.00452882 7.93786e-21)
(52.0697 0.0052349 1.34173e-21)
(52.0739 0.00708633 1.42327e-20)
(52.0737 0.0091576 -2.48189e-21)
(52.0754 0.0111246 0)
(52.0751 0.0169557 0)
(52.0709 0.0213873 6.25175e-24)
(52.0698 0.0296039 -7.28659e-24)
(52.0643 0.0428944 -1.5727e-20)
(52.0593 0.0592695 7.38138e-24)
(52.0512 0.087529 0)
(52.0422 0.133038 -8.23886e-21)
(52.0258 0.202684 8.9468e-21)
(51.9985 0.329177 0)
(51.9719 0.541304 0)
(51.9377 0.825492 1.22713e-20)
(51.9014 1.17671 -3.80033e-20)
(51.8578 1.56732 -4.53573e-20)
(51.8102 1.97111 0)
(51.7627 2.38115 0)
(51.7227 2.75409 -1.33802e-21)
(51.67 3.09382 1.13642e-19)
(51.6134 3.39821 -3.02621e-20)
(51.5528 3.63437 9.05196e-20)
(51.4823 3.83651 -1.21111e-21)
(51.4097 3.99143 -1.32129e-19)
(51.3229 4.09506 5.43622e-20)
(51.22 4.17906 -1.16201e-19)
(51.1249 4.22242 4.39066e-19)
(51.0334 4.2254 -2.46417e-19)
(50.9425 4.20115 0)
(50.8564 4.14969 -2.49188e-20)
(50.7823 4.06843 0)
(50.7186 3.96933 6.17425e-19)
(50.6621 3.86172 -6.63878e-19)
(50.583 3.99167 0)
(50.5506 3.9545 0)
(52.0549 -0.00283517 0)
(52.054 -0.000142131 8.27361e-20)
(52.0547 5.5217e-05 4.10949e-22)
(52.0542 0.000177929 2.08257e-19)
(52.0549 0.000594671 1.3358e-19)
(52.0545 0.00110373 -8.25051e-20)
(52.0553 0.00127223 9.09521e-20)
(52.0557 0.00170795 5.80985e-24)
(52.0578 0.00217891 -5.43302e-20)
(52.0599 0.00277321 2.91363e-20)
(52.0634 0.00299579 5.65837e-25)
(52.0671 0.00453352 -7.93647e-21)
(52.0697 0.00524914 1.80382e-25)
(52.0739 0.00718049 6.91369e-21)
(52.0737 0.00934561 -9.99328e-21)
(52.0755 0.0114067 -1.54767e-20)
(52.0753 0.0175461 1.65619e-24)
(52.0711 0.022202 0)
(52.0701 0.0308489 0)
(52.0648 0.044843 1.57294e-20)
(52.0599 0.0620681 -5.80648e-24)
(52.0523 0.0917737 1.28452e-23)
(52.0438 0.139596 4.91079e-21)
(52.0283 0.212668 1.30033e-20)
(52.0031 0.344929 -3.75252e-23)
(51.9802 0.566535 4.70305e-23)
(51.9515 0.862875 -8.74641e-21)
(51.9225 1.22833 3.58763e-20)
(51.8873 1.63357 2.11069e-21)
(51.8482 2.05028 3.42925e-20)
(51.8078 2.47061 7.79343e-20)
(51.7731 2.85059 -7.35279e-20)
(51.724 3.19442 1.99358e-20)
(51.6707 3.49993 3.38805e-20)
(51.6136 3.7345 -1.32768e-19)
(51.546 3.9344 -1.27211e-19)
(51.4715 4.08901 7.68269e-20)
(51.3827 4.19503 2.20551e-19)
(51.2843 4.27806 0)
(51.1949 4.31801 -4.8289e-20)
(51.1069 4.32097 2.79879e-19)
(51.0199 4.2956 -2.68149e-19)
(50.9407 4.23713 -4.15691e-19)
(50.8739 4.14523 4.69701e-19)
(50.8159 4.03743 -3.57155e-20)
(50.7652 3.92025 0)
(50.6908 4.05703 2.26258e-20)
(50.6692 3.99478 8.05494e-19)
(52.0549 -0.00292053 0)
(52.054 -0.000158634 0)
(52.0547 4.13674e-05 -1.35129e-19)
(52.0542 0.000166043 -1.04771e-19)
(52.0549 0.000590303 -1.33587e-19)
(52.0545 0.00110719 -4.63522e-22)
(52.0553 0.00127067 0)
(52.0557 0.00170352 0)
(52.0578 0.00216713 5.43222e-20)
(52.0599 0.00275547 2.32872e-21)
(52.0634 0.00296183 3.46759e-20)
(52.0671 0.00454181 1.94556e-24)
(52.0697 0.0052679 6.27102e-21)
(52.074 0.00728468 -3.67252e-21)
(52.0738 0.00954904 0)
(52.0756 0.0117093 3.41258e-21)
(52.0755 0.0181743 1.47464e-24)
(52.0713 0.0230651 -2.14918e-24)
(52.0705 0.0321614 -5.35464e-24)
(52.0653 0.0468894 9.90956e-24)
(52.0606 0.0649889 -4.23638e-24)
(52.0534 0.0961714 -5.69599e-21)
(52.0454 0.146334 8.06369e-21)
(52.031 0.222815 2.05407e-21)
(52.0079 0.360733 9.74506e-21)
(51.989 0.591605 5.9719e-21)
(51.9661 0.899724 1.07359e-21)
(51.9448 1.27887 -1.55177e-20)
(51.9183 1.69801 0)
(51.888 2.12678 -7.95102e-20)
(51.8545 2.55651 -6.00862e-20)
(51.8248 2.94271 -1.24914e-20)
(51.7793 3.28995 8.32374e-20)
(51.7296 3.59597 -3.30744e-20)
(51.6762 3.8289 -4.49088e-20)
(51.6101 4.02752 -1.22982e-19)
(51.5336 4.18294 -8.88923e-20)
(51.4451 4.29044 5.0937e-20)
(51.3529 4.3713 1.4764e-19)
(51.2681 4.40842 -3.74381e-19)
(51.183 4.41137 2.05894e-19)
(51.1011 4.38259 2.69754e-19)
(51.0295 4.3152 -3.04193e-19)
(50.9691 4.21315 -4.67957e-19)
(50.9157 4.09739 5.83849e-19)
(50.8698 3.97007 1.98292e-20)
(50.7988 4.11245 -2.26073e-20)
(50.7857 4.02607 -7.88301e-19)
(52.0549 -0.00300901 -4.70172e-20)
(52.054 -0.000175419 -3.2756e-23)
(52.0547 2.74884e-05 2.93936e-23)
(52.0542 0.000154096 3.14886e-19)
(52.0549 0.000586324 -1.34945e-19)
(52.0545 0.00111141 8.29474e-20)
(52.0554 0.00126981 5.81691e-25)
(52.0558 0.00169974 7.32208e-24)
(52.0578 0.00215607 7.50918e-24)
(52.0599 0.00273857 2.3353e-21)
(52.0634 0.00292841 -7.35903e-20)
(52.0672 0.00455379 -1.74208e-24)
(52.0698 0.00529131 -2.39123e-20)
(52.0741 0.00739932 -3.68406e-21)
(52.0739 0.00976873 4.90536e-25)
(52.0757 0.0120337 2.07063e-20)
(52.0757 0.0188417 -1.09089e-20)
(52.0716 0.0239777 0)
(52.0709 0.033542 -2.1626e-24)
(52.0659 0.0490336 2.48544e-24)
(52.0614 0.0680308 2.36633e-22)
(52.0547 0.100716 -2.37317e-21)
(52.0471 0.153236 -8.05746e-21)
(52.0338 0.233081 -1.50048e-20)
(52.013 0.376485 -2.08948e-20)
(51.9982 0.616311 -1.00405e-20)
(51.9814 0.935709 1.25499e-20)
(51.9682 1.32786 3.11381e-20)
(51.9509 1.76005 3.18762e-21)
(51.9294 2.19995 3.49928e-20)
(51.9027 2.63817 -9.66308e-21)
(51.8777 3.02981 2.71684e-20)
(51.8359 3.37976 -7.9561e-20)
(51.7903 3.68581 -2.80733e-20)
(51.7399 3.91742 8.61503e-20)
(51.6741 4.11585 1.41913e-21)
(51.5964 4.27255 0)
(51.5103 4.38012 -5.2781e-20)
(51.4248 4.45829 0)
(51.3434 4.49378 -1.86457e-19)
(51.2611 4.49579 -7.70781e-21)
(51.1848 4.46052 5.5737e-19)
(51.12 4.38264 -3.6742e-19)
(51.0646 4.27129 -4.57114e-19)
(51.0148 4.14846 -4.24905e-20)
(50.973 4.01108 6.02671e-19)
(50.9046 4.15899 0)
(50.8986 4.04988 7.46227e-19)
(52.0549 -0.00310067 9.49529e-20)
(52.054 -0.0001925 0)
(52.0547 1.35715e-05 1.36424e-19)
(52.0542 0.000142077 -3.15532e-19)
(52.0549 0.000582732 1.34953e-19)
(52.0545 0.00111638 -8.38868e-20)
(52.0554 0.00126961 -1.19086e-23)
(52.0558 0.00169658 5.64384e-20)
(52.0578 0.00214572 5.41431e-25)
(52.0599 0.00272244 -3.37879e-20)
(52.0635 0.00289547 3.89075e-20)
(52.0672 0.00456953 0)
(52.0698 0.0053195 1.76418e-20)
(52.0741 0.00752488 4.44364e-22)
(52.074 0.0100053 5.03636e-26)
(52.0759 0.0123809 -1.38463e-20)
(52.0759 0.0195508 2.18454e-21)
(52.0719 0.0249417 -2.00877e-25)
(52.0714 0.0349912 1.05831e-24)
(52.0666 0.0512746 5.32934e-21)
(52.0623 0.0711915 -2.1819e-21)
(52.056 0.1054 8.05231e-21)
(52.049 0.160281 -1.11072e-20)
(52.0368 0.24342 1.9004e-20)
(52.0184 0.392073 1.10068e-20)
(52.0078 0.640434 -1.04762e-21)
(51.9976 0.970477 -5.40824e-21)
(51.9929 1.37481 -1.34951e-20)
(51.9848 1.81907 -1.75766e-21)
(51.9724 2.26914 -5.5977e-21)
(51.9521 2.71493 7.01321e-21)
(51.9318 3.11124 0)
(51.8939 3.46326 -1.00158e-19)
(51.8523 3.76904 8.47573e-20)
(51.8042 4.00002 0)
(51.7376 4.19923 5.80898e-20)
(51.6602 4.35704 -8.09414e-20)
(51.5779 4.46333 1.02339e-19)
(51.498 4.53894 0)
(51.4192 4.57373 -1.81758e-19)
(51.3408 4.57337 2.81373e-19)
(51.2707 4.52953 9.0936e-22)
(51.2114 4.441 -4.57019e-20)
(51.1593 4.3215 0)
(51.112 4.19214 -5.31681e-19)
(51.0734 4.04472 6.07086e-19)
(51.0067 4.19796 -6.85815e-19)
(51.0065 4.06738 7.20512e-19)
(52.0549 -0.00319562 -4.79349e-20)
(52.054 -0.000209891 0)
(52.0547 -3.91927e-07 -2.73295e-19)
(52.0542 0.000129972 3.16813e-19)
(52.0549 0.000579525 0)
(52.0545 0.0011221 -4.72298e-22)
(52.0554 0.00127009 9.65285e-20)
(52.0558 0.00169403 -1.14134e-19)
(52.0578 0.00213602 8.40159e-24)
(52.0599 0.00270703 3.84972e-20)
(52.0635 0.00286295 1.10293e-23)
(52.0673 0.00458913 5.38032e-24)
(52.0698 0.00535262 -6.47269e-24)