/*--------------------------------*- C++ -*----------------------------------*\
  =========                 |
  \\      /  F ield         | OpenFOAM: The Open Source CFD Toolbox
   \\    /   O peration     | Website:  https://openfoam.org
    \\  /    A nd           | Version:  10
     \\/     M anipulation  |
\*---------------------------------------------------------------------------*/
FoamFile
{
    format      ascii;
    class       volScalarField;
    location    "5";
    object      nut;
}
// * * * * * * * * * * * * * * * * * * * * * * * * * * * * * * * * * * * * * //

dimensions      [0 2 -1 0 0 0 0];

internalField   nonuniform List<scalar> 
38016
(
1.92291e-06
1.92162e-06
1.92227e-06
1.92358e-06
1.91907e-06
1.92451e-06
1.92079e-06
1.92298e-06
1.92318e-06
1.92439e-06
1.92382e-06
1.92629e-06
1.92919e-06
1.92878e-06
1.93813e-06
1.93834e-06
1.9483e-06
1.95335e-06
1.95613e-06
1.96118e-06
1.96388e-06
1.96877e-06
1.98005e-06
1.98981e-06
2.00752e-06
2.03639e-06
2.05699e-06
2.08125e-06
2.10701e-06
2.1599e-06
2.21769e-06
2.25008e-06
2.3228e-06
2.32265e-06
2.33653e-06
2.46691e-06
2.5627e-06
2.54106e-06
2.73987e-06
2.95859e-06
3.12354e-06
3.62468e-06
3.58148e-06
3.75956e-06
4.12233e-06
4.45085e-06
4.78263e-06
5.47148e-06
1.92287e-06
1.92156e-06
1.92224e-06
1.92356e-06
1.91905e-06
1.92448e-06
1.92076e-06
1.92293e-06
1.92314e-06
1.92434e-06
1.92378e-06
1.92629e-06
1.92916e-06
1.92872e-06
1.93811e-06
1.93826e-06
1.94827e-06
1.95331e-06
1.9561e-06
1.96116e-06
1.96379e-06
1.96862e-06
1.97983e-06
1.98933e-06
2.0068e-06
2.0357e-06
2.05637e-06
2.08042e-06
2.10603e-06
2.15859e-06
2.21599e-06
2.24848e-06
2.32204e-06
2.32227e-06
2.33583e-06
2.4656e-06
2.56223e-06
2.54054e-06
2.73818e-06
2.95528e-06
3.11875e-06
3.62465e-06
3.57956e-06
3.75772e-06
4.11989e-06
4.44906e-06
4.78014e-06
5.46961e-06
1.92165e-06
1.92215e-06
1.92138e-06
1.92201e-06
1.92076e-06
1.92283e-06
1.92132e-06
1.92378e-06
1.92293e-06
1.92521e-06
1.92542e-06
1.92679e-06
1.92953e-06
1.93002e-06
1.93613e-06
1.93843e-06
1.94525e-06
1.95189e-06
1.95406e-06
1.96196e-06
1.96463e-06
1.96966e-06
1.97888e-06
1.98718e-06
2.00229e-06
2.02592e-06
2.04816e-06
2.08855e-06
2.11435e-06
2.16163e-06
2.21759e-06
2.25408e-06
2.31051e-06
2.33119e-06
2.34198e-06
2.40128e-06
2.49513e-06
2.59256e-06
2.73322e-06
2.98259e-06
3.25088e-06
3.51854e-06
3.596e-06
3.79158e-06
4.10906e-06
4.44294e-06
4.81618e-06
5.51414e-06
1.92162e-06
1.92212e-06
1.92136e-06
1.922e-06
1.92074e-06
1.9228e-06
1.9213e-06
1.92374e-06
1.9229e-06
1.92517e-06
1.9254e-06
1.92677e-06
1.92953e-06
1.92999e-06
1.93612e-06
1.93841e-06
1.94524e-06
1.95188e-06
1.95402e-06
1.9619e-06
1.96455e-06
1.96953e-06
1.97868e-06
1.98692e-06
2.0019e-06
2.02528e-06
2.04723e-06
2.08762e-06
2.11343e-06
2.16103e-06
2.21751e-06
2.25385e-06
2.31041e-06
2.33106e-06
2.34145e-06
2.40034e-06
2.49506e-06
2.59283e-06
2.73268e-06
2.98134e-06
3.25415e-06
3.51251e-06
3.60062e-06
3.79854e-06
4.11923e-06
4.4541e-06
4.83206e-06
5.54223e-06
1.92162e-06
1.92212e-06
1.92136e-06
1.922e-06
1.92074e-06
1.9228e-06
1.9213e-06
1.92374e-06
1.9229e-06
1.92517e-06
1.9254e-06
1.92677e-06
1.92953e-06
1.92998e-06
1.93611e-06
1.9384e-06
1.94521e-06
1.95185e-06
1.95395e-06
1.96181e-06
1.96442e-06
1.96936e-06
1.97843e-06
1.98656e-06
2.0014e-06
2.02462e-06
2.04643e-06
2.08674e-06
2.11249e-06
2.16013e-06
2.21671e-06
2.25316e-06
2.30983e-06
2.33062e-06
2.34146e-06
2.40103e-06
2.49558e-06
2.59486e-06
2.73175e-06
2.9791e-06
3.26335e-06
3.50963e-06
3.60512e-06
3.80641e-06
4.13144e-06
4.46798e-06
4.85149e-06
5.57468e-06
1.92162e-06
1.92212e-06
1.92135e-06
1.922e-06
1.92074e-06
1.9228e-06
1.9213e-06
1.92374e-06
1.9229e-06
1.92516e-06
1.9254e-06
1.92676e-06
1.92953e-06
1.92998e-06
1.9361e-06
1.93838e-06
1.94517e-06
1.95181e-06
1.95388e-06
1.96172e-06
1.96428e-06
1.96916e-06
1.97816e-06
1.98618e-06
2.00088e-06
2.02393e-06
2.04558e-06
2.08582e-06
2.11151e-06
2.15919e-06
2.21585e-06
2.25243e-06
2.30916e-06
2.3301e-06
2.34149e-06
2.40181e-06
2.49589e-06
2.59704e-06
2.73114e-06
2.97685e-06
3.27256e-06
3.50924e-06
3.61006e-06
3.81525e-06
4.14482e-06
4.48323e-06
4.87387e-06
5.61018e-06
1.92162e-06
1.92212e-06
1.92135e-06
1.922e-06
1.92074e-06
1.9228e-06
1.9213e-06
1.92373e-06
1.9229e-06
1.92516e-06
1.9254e-06
1.92676e-06
1.92952e-06
1.92996e-06
1.93609e-06
1.93836e-06
1.94514e-06
1.95177e-06
1.9538e-06
1.96163e-06
1.96413e-06
1.96896e-06
1.97787e-06
1.98578e-06
2.00032e-06
2.02319e-06
2.04469e-06
2.08485e-06
2.11046e-06
2.15817e-06
2.21492e-06
2.25163e-06
2.30841e-06
2.32952e-06
2.34148e-06
2.40256e-06
2.49603e-06
2.59923e-06
2.73077e-06
2.97534e-06
3.28099e-06
3.51038e-06
3.61377e-06
3.82406e-06
4.16033e-06
4.49959e-06
4.89697e-06
5.65012e-06
1.92162e-06
1.92212e-06
1.92135e-06
1.922e-06
1.92074e-06
1.9228e-06
1.9213e-06
1.92373e-06
1.9229e-06
1.92516e-06
1.9254e-06
1.92675e-06
1.92952e-06
1.92995e-06
1.93607e-06
1.93833e-06
1.9451e-06
1.95172e-06
1.95372e-06
1.96152e-06
1.96397e-06
1.96874e-06
1.97756e-06
1.98535e-06
1.99973e-06
2.02241e-06
2.04373e-06
2.0838e-06
2.10934e-06
2.15709e-06
2.21391e-06
2.25076e-06
2.30757e-06
2.32885e-06
2.34138e-06
2.40316e-06
2.49602e-06
2.60126e-06
2.73065e-06
2.97452e-06
3.28891e-06
3.51289e-06
3.6166e-06
3.83125e-06
4.1751e-06
4.51644e-06
4.91952e-06
5.69073e-06
1.92162e-06
1.92213e-06
1.92135e-06
1.922e-06
1.92073e-06
1.9228e-06
1.9213e-06
1.92373e-06
1.9229e-06
1.92515e-06
1.9254e-06
1.92674e-06
1.92952e-06
1.92994e-06
1.93606e-06
1.93831e-06
1.94505e-06
1.95166e-06
1.95363e-06
1.9614e-06
1.9638e-06
1.9685e-06
1.97723e-06
1.98488e-06
1.99909e-06
2.02158e-06
2.04272e-06
2.08269e-06
2.10815e-06
2.15592e-06
2.21281e-06
2.2498e-06
2.30664e-06
2.3281e-06
2.34118e-06
2.40358e-06
2.49588e-06
2.60304e-06
2.73119e-06
2.9742e-06
3.29592e-06
3.51687e-06
3.62027e-06
3.83876e-06
4.18875e-06
4.53196e-06
4.94067e-06
5.73048e-06
1.92162e-06
1.92213e-06
1.92135e-06
1.922e-06
1.92073e-06
1.92279e-06
1.92129e-06
1.92372e-06
1.9229e-06
1.92515e-06
1.92539e-06
1.92673e-06
1.92951e-06
1.92992e-06
1.93604e-06
1.93828e-06
1.945e-06
1.95161e-06
1.95353e-06
1.96127e-06
1.96361e-06
1.96824e-06
1.97687e-06
1.98439e-06
1.99841e-06
2.0207e-06
2.04165e-06
2.08151e-06
2.10688e-06
2.15468e-06
2.21161e-06
2.24877e-06
2.30561e-06
2.32724e-06
2.34084e-06
2.40382e-06
2.49569e-06
2.60441e-06
2.73239e-06
2.9747e-06
3.30177e-06
3.52127e-06
3.62416e-06
3.84691e-06
4.20307e-06
4.54762e-06
4.96196e-06
5.77367e-06
1.92162e-06
1.92213e-06
1.92134e-06
1.922e-06
1.92073e-06
1.92279e-06
1.92129e-06
1.92372e-06
1.9229e-06
1.92514e-06
1.92539e-06
1.92673e-06
1.92951e-06
1.92991e-06
1.93602e-06
1.93825e-06
1.94495e-06
1.95154e-06
1.95342e-06
1.96113e-06
1.96341e-06
1.96796e-06
1.97649e-06
1.98386e-06
1.99769e-06
2.01976e-06
2.04051e-06
2.08026e-06
2.10552e-06
2.15335e-06
2.21032e-06
2.24765e-06
2.30448e-06
2.32628e-06
2.34034e-06
2.4039e-06
2.49545e-06
2.60528e-06
2.73363e-06
2.97625e-06
3.30692e-06
3.52525e-06
3.62743e-06
3.85433e-06
4.21662e-06
4.56134e-06
4.97833e-06
5.8087e-06
1.92162e-06
1.92213e-06
1.92134e-06
1.922e-06
1.92073e-06
1.92279e-06
1.92129e-06
1.92372e-06
1.92289e-06
1.92514e-06
1.92539e-06
1.92672e-06
1.9295e-06
1.92989e-06
1.93599e-06
1.93821e-06
1.94489e-06
1.95147e-06
1.9533e-06
1.96098e-06
1.96319e-06
1.96766e-06
1.97608e-06
1.9833e-06
1.99693e-06
2.01877e-06
2.0393e-06
2.07893e-06
2.10409e-06
2.15193e-06
2.20893e-06
2.24645e-06
2.30322e-06
2.3252e-06
2.33965e-06
2.40382e-06
2.49512e-06
2.6058e-06
2.73447e-06
2.97861e-06
3.31206e-06
3.52899e-06
3.63065e-06
3.86156e-06
4.23008e-06
4.57571e-06
4.99446e-06
5.842e-06
1.92162e-06
1.92213e-06
1.92134e-06
1.922e-06
1.92072e-06
1.92279e-06
1.92129e-06
1.92372e-06
1.92289e-06
1.92513e-06
1.92539e-06
1.92671e-06
1.9295e-06
1.92987e-06
1.93597e-06
1.93818e-06
1.94483e-06
1.95139e-06
1.95317e-06
1.96081e-06
1.96295e-06
1.96734e-06
1.97565e-06
1.9827e-06
1.99612e-06
2.01771e-06
2.03802e-06
2.07751e-06
2.10256e-06
2.15042e-06
2.20743e-06
2.24515e-06
2.30185e-06
2.32402e-06
2.33873e-06
2.40359e-06
2.49465e-06
2.60626e-06
2.73506e-06
2.98115e-06
3.31695e-06
3.5325e-06
3.63393e-06
3.86856e-06
4.24325e-06
4.59184e-06
5.01382e-06
5.87983e-06
1.92162e-06
1.92213e-06
1.92134e-06
1.922e-06
1.92072e-06
1.92279e-06
1.92129e-06
1.92371e-06
1.92289e-06
1.92512e-06
1.92539e-06
1.9267e-06
1.92949e-06
1.92985e-06
1.93594e-06
1.93813e-06
1.94476e-06
1.9513e-06
1.95304e-06
1.96063e-06
1.9627e-06
1.967e-06
1.97518e-06
1.98207e-06
1.99526e-06
2.0166e-06
2.03667e-06
2.07602e-06
2.10094e-06
2.14882e-06
2.20583e-06
2.24376e-06
2.30036e-06
2.32273e-06
2.3376e-06
2.40318e-06
2.49407e-06
2.60672e-06
2.73559e-06
2.98325e-06
3.3211e-06
3.53585e-06
3.63697e-06
3.87385e-06
4.25254e-06
4.603e-06
5.02557e-06
5.90529e-06
1.92162e-06
1.92213e-06
1.92133e-06
1.922e-06
1.92072e-06
1.92278e-06
1.92129e-06
1.92371e-06
1.92289e-06
1.92512e-06
1.92539e-06
1.92669e-06
1.92948e-06
1.92983e-06
1.93591e-06
1.93809e-06
1.94469e-06
1.95121e-06
1.95289e-06
1.96044e-06
1.96243e-06
1.96664e-06
1.97469e-06
1.9814e-06
1.99435e-06
2.01543e-06
2.03525e-06
2.07444e-06
2.09923e-06
2.14713e-06
2.20411e-06
2.24227e-06
2.29874e-06
2.32133e-06
2.3363e-06
2.40255e-06
2.49342e-06
2.60704e-06
2.73595e-06
2.98482e-06
3.32467e-06
3.53965e-06
3.64068e-06
3.87972e-06
4.26282e-06
4.61683e-06
5.04049e-06
5.93438e-06
1.92162e-06
1.92213e-06
1.92133e-06
1.922e-06
1.92072e-06
1.92278e-06
1.92129e-06
1.9237e-06
1.92289e-06
1.92511e-06
1.92538e-06
1.92668e-06
1.92947e-06
1.92981e-06
1.93588e-06
1.93804e-06
1.94461e-06
1.95111e-06
1.95274e-06
1.96023e-06
1.96214e-06
1.96625e-06
1.97416e-06
1.98069e-06
1.99339e-06
2.01419e-06
2.03376e-06
2.07278e-06
2.09742e-06
2.14533e-06
2.20227e-06
2.24066e-06
2.29701e-06
2.3198e-06
2.33487e-06
2.40167e-06
2.49274e-06
2.6071e-06
2.73601e-06
2.98608e-06
3.32771e-06
3.5432e-06
3.64366e-06
3.88474e-06
4.27301e-06
4.63208e-06
5.05701e-06
5.96383e-06
1.92161e-06
1.92214e-06
1.92133e-06
1.922e-06
1.92071e-06
1.92278e-06
1.92128e-06
1.9237e-06
1.92289e-06
1.92511e-06
1.92538e-06
1.92666e-06
1.92946e-06
1.92979e-06
1.93584e-06
1.93799e-06
1.94453e-06
1.951e-06
1.95257e-06
1.96001e-06
1.96183e-06
1.96584e-06
1.9736e-06
1.97994e-06
1.99238e-06
2.0129e-06
2.03219e-06
2.07104e-06
2.09552e-06
2.14344e-06
2.20031e-06
2.23894e-06
2.29516e-06
2.31814e-06
2.33338e-06
2.40058e-06
2.49203e-06
2.60697e-06
2.73579e-06
2.98723e-06
3.33024e-06
3.54592e-06
3.6451e-06
3.88761e-06
4.27997e-06
4.6421e-06
5.06509e-06
5.98232e-06
1.92161e-06
1.92214e-06
1.92133e-06
1.922e-06
1.92071e-06
1.92277e-06
1.92128e-06
1.9237e-06
1.92289e-06
1.9251e-06
1.92538e-06
1.92665e-06
1.92945e-06
1.92976e-06
1.93581e-06
1.93793e-06
1.94444e-06
1.95088e-06
1.95239e-06
1.95978e-06
1.96151e-06
1.9654e-06
1.97302e-06
1.97915e-06
1.99132e-06
2.01154e-06
2.03055e-06
2.06921e-06
2.09352e-06
2.14144e-06
2.19822e-06
2.23709e-06
2.29319e-06
2.31635e-06
2.33184e-06
2.39935e-06
2.49125e-06
2.60673e-06
2.73528e-06
2.98839e-06
3.33274e-06
3.54873e-06
3.64726e-06
3.89281e-06
4.29068e-06
4.65584e-06
5.0761e-06
6.004e-06
1.92161e-06
1.92214e-06
1.92132e-06
1.922e-06
1.92071e-06
1.92277e-06
1.92128e-06
1.92369e-06
1.92288e-06
1.92509e-06
1.92537e-06
1.92664e-06
1.92943e-06
1.92973e-06
1.93577e-06
1.93787e-06
1.94434e-06
1.95076e-06
1.9522e-06
1.95953e-06
1.96116e-06
1.96494e-06
1.9724e-06
1.97832e-06
1.99021e-06
2.01012e-06
2.02883e-06
2.06729e-06
2.09142e-06
2.13934e-06
2.196e-06
2.23512e-06
2.29109e-06
2.31442e-06
2.33023e-06
2.39812e-06
2.49034e-06
2.60629e-06
2.73439e-06
2.98939e-06
3.33511e-06
3.55112e-06
3.64899e-06
3.8984e-06
4.30243e-06
4.67045e-06
5.08803e-06
6.02611e-06
1.92161e-06
1.92214e-06
1.92132e-06
1.92199e-06
1.9207e-06
1.92277e-06
1.92128e-06
1.92369e-06
1.92288e-06
1.92508e-06
1.92537e-06
1.92663e-06
1.92942e-06
1.9297e-06
1.93572e-06
1.93781e-06
1.94424e-06
1.95062e-06
1.952e-06
1.95926e-06
1.96079e-06
1.96445e-06
1.97175e-06
1.97745e-06
1.98906e-06
2.00864e-06
2.02705e-06
2.06529e-06
2.08923e-06
2.13714e-06
2.19364e-06
2.23304e-06
2.28886e-06
2.31241e-06
2.32855e-06
2.39695e-06
2.4893e-06
2.6056e-06
2.73321e-06
2.99016e-06
3.33711e-06
3.55268e-06
3.6494e-06
3.9014e-06
4.30854e-06
4.67513e-06
5.08691e-06
6.03693e-06
1.92161e-06
1.92214e-06
1.92132e-06
1.92199e-06
1.9207e-06
1.92277e-06
1.92128e-06
1.92368e-06
1.92288e-06
1.92508e-06
1.92536e-06
1.92661e-06
1.92941e-06
1.92967e-06
1.93568e-06
1.93774e-06
1.94413e-06
1.95048e-06
1.95178e-06
1.95898e-06
1.96041e-06
1.96394e-06
1.97106e-06
1.97655e-06
1.98785e-06
2.00711e-06
2.0252e-06
2.06322e-06
2.08694e-06
2.13484e-06
2.19116e-06
2.23086e-06
2.2865e-06
2.31037e-06
2.32681e-06
2.39582e-06
2.48812e-06
2.60467e-06
2.7321e-06
2.99108e-06
3.33926e-06
3.55504e-06
3.65245e-06
3.9089e-06
4.32004e-06
4.68573e-06
5.09392e-06
6.05744e-06
1.92161e-06
1.92214e-06
1.92131e-06
1.92199e-06
1.9207e-06
1.92276e-06
1.92127e-06
1.92368e-06
1.92288e-06
1.92507e-06
1.92536e-06
1.9266e-06
1.92939e-06
1.92964e-06
1.93563e-06
1.93767e-06
1.94401e-06
1.95033e-06
1.95155e-06
1.95868e-06
1.96e-06
1.9634e-06
1.97035e-06
1.9756e-06
1.9866e-06
2.00552e-06
2.02328e-06
2.06107e-06
2.08456e-06
2.13244e-06
2.18855e-06
2.22859e-06
2.28402e-06
2.30832e-06
2.32505e-06
2.39466e-06
2.48677e-06
2.60346e-06
2.731e-06
2.9918e-06
3.34066e-06
3.55617e-06
3.65423e-06
3.91452e-06
4.32824e-06
4.69222e-06
5.09814e-06
6.07536e-06
1.92161e-06
1.92214e-06
1.92131e-06
1.92199e-06
1.92069e-06
1.92276e-06
1.92127e-06
1.92367e-06
1.92288e-06
1.92506e-06
1.92535e-06
1.92658e-06
1.92937e-06
1.9296e-06
1.93558e-06
1.93759e-06
1.94389e-06
1.95017e-06
1.95131e-06
1.95837e-06
1.95958e-06
1.96284e-06
1.96961e-06
1.97463e-06
1.98531e-06
2.00389e-06
2.02131e-06
2.05885e-06
2.0821e-06
2.12997e-06
2.18584e-06
2.22626e-06
2.28144e-06
2.30628e-06
2.3233e-06
2.39336e-06
2.48525e-06
2.60203e-06
2.72994e-06
2.99223e-06
3.34175e-06
3.55721e-06
3.65544e-06
3.91725e-06
4.33009e-06
4.69002e-06
5.09387e-06
6.09158e-06
1.92161e-06
1.92214e-06
1.92131e-06
1.92199e-06
1.92069e-06
1.92276e-06
1.92127e-06
1.92367e-06
1.92287e-06
1.92505e-06
1.92535e-06
1.92656e-06
1.92935e-06
1.92956e-06
1.93552e-06
1.93751e-06
1.94376e-06
1.95e-06
1.95106e-06
1.95804e-06
1.95913e-06
1.96226e-06
1.96884e-06
1.97362e-06
1.98398e-06
2.00221e-06
2.01929e-06
2.05656e-06
2.07957e-06
2.12742e-06
2.18302e-06
2.22387e-06
2.2788e-06
2.30422e-06
2.32157e-06
2.39184e-06
2.4836e-06
2.60068e-06
2.72923e-06
2.99266e-06
3.34321e-06
3.56016e-06
3.66011e-06
3.92384e-06
4.33643e-06
4.69486e-06
5.10108e-06
6.11679e-06
1.92161e-06
1.92214e-06
1.92131e-06
1.92199e-06
1.92069e-06
1.92275e-06
1.92127e-06
1.92366e-06
1.92287e-06
1.92504e-06
1.92534e-06
1.92655e-06
1.92934e-06
1.92952e-06
1.93546e-06
1.93743e-06
1.94363e-06
1.94983e-06
1.9508e-06
1.9577e-06
1.95867e-06
1.96165e-06
1.96805e-06
1.97258e-06
1.98262e-06
2.00049e-06
2.01722e-06
2.05423e-06
2.07698e-06
2.1248e-06
2.1801e-06
2.22141e-06
2.27611e-06
2.30208e-06
2.3198e-06
2.39004e-06
2.48185e-06
2.59949e-06
2.72888e-06
2.99275e-06
3.34365e-06
3.56141e-06
3.66162e-06
3.9248e-06
4.3352e-06
4.69264e-06
5.10342e-06
6.14039e-06
1.92161e-06
1.92214e-06
1.9213e-06
1.92199e-06
1.92068e-06
1.92275e-06
1.92127e-06
1.92366e-06
1.92287e-06
1.92503e-06
1.92534e-06
1.92653e-06
1.92932e-06
1.92948e-06
1.9354e-06
1.93734e-06
1.94348e-06
1.94965e-06
1.95052e-06
1.95735e-06
1.95819e-06
1.96103e-06
1.96723e-06
1.97151e-06
1.98123e-06
1.99875e-06
2.01512e-06
2.05185e-06
2.07433e-06
2.12213e-06
2.17711e-06
2.21888e-06
2.27341e-06
2.29982e-06
2.31794e-06
2.38805e-06
2.48015e-06
2.59856e-06
2.72892e-06
2.99314e-06
3.34481e-06
3.5636e-06
3.66294e-06
3.92342e-06
4.33049e-06
4.68814e-06
5.10556e-06
6.15333e-06
1.92161e-06
1.92214e-06
1.9213e-06
1.92199e-06
1.92068e-06
1.92274e-06
1.92126e-06
1.92365e-06
1.92286e-06
1.92502e-06
1.92533e-06
1.92651e-06
1.9293e-06
1.92944e-06
1.93534e-06
1.93725e-06
1.94334e-06
1.94946e-06
1.95024e-06
1.95698e-06
1.95769e-06
1.96039e-06
1.96639e-06
1.97043e-06
1.97982e-06
1.99698e-06
2.01299e-06
2.04943e-06
2.07164e-06
2.1194e-06
2.17404e-06
2.21627e-06
2.27069e-06
2.29743e-06
2.31597e-06
2.386e-06
2.47874e-06
2.59798e-06
2.72906e-06
2.9933e-06
3.34617e-06
3.56663e-06
3.66511e-06
3.92262e-06
4.32798e-06
4.68975e-06
5.11751e-06
6.17761e-06
1.92161e-06
1.92215e-06
1.9213e-06
1.92199e-06
1.92068e-06
1.92274e-06
1.92126e-06
1.92364e-06
1.92286e-06
1.92501e-06
1.92532e-06
1.92649e-06
1.92928e-06
1.9294e-06
1.93528e-06
1.93715e-06
1.94318e-06
1.94926e-06
1.94994e-06
1.9566e-06
1.95718e-06
1.95973e-06
1.96553e-06
1.96933e-06
1.9784e-06
1.9952e-06
2.01085e-06
2.047e-06
2.06892e-06
2.11662e-06
2.17092e-06
2.21359e-06
2.26795e-06
2.2949e-06
2.31387e-06
2.38401e-06
2.47775e-06
2.59789e-06
2.72931e-06
2.9929e-06
3.3462e-06
3.56692e-06
3.66252e-06
3.91534e-06
4.31909e-06
4.68694e-06
5.1264e-06
6.19194e-06
1.9216e-06
1.92215e-06
1.92129e-06
1.92199e-06
1.92067e-06
1.92273e-06
1.92126e-06
1.92364e-06
1.92286e-06
1.925e-06
1.92532e-06
1.92647e-06
1.92925e-06
1.92935e-06
1.93521e-06
1.93705e-06
1.94302e-06
1.94906e-06
1.94964e-06
1.95621e-06
1.95666e-06
1.95906e-06
1.96467e-06
1.96821e-06
1.97697e-06
1.99342e-06
2.00871e-06
2.04456e-06
2.0662e-06
2.11382e-06
2.16777e-06
2.21088e-06
2.2652e-06
2.29226e-06
2.31173e-06
2.38221e-06
2.47717e-06
2.59819e-06
2.72979e-06
2.99297e-06
3.34712e-06
3.56754e-06
3.65897e-06
3.90685e-06
4.31064e-06
4.68699e-06
5.14061e-06
6.20337e-06
1.9216e-06
1.92215e-06
1.92129e-06
1.92199e-06
1.92067e-06
1.92273e-06
1.92126e-06
1.92363e-06
1.92286e-06
1.92499e-06
1.92531e-06
1.92645e-06
1.92923e-06
1.92931e-06
1.93514e-06
1.93695e-06
1.94286e-06
1.94886e-06
1.94932e-06
1.95582e-06
1.95613e-06
1.95838e-06
1.96379e-06
1.9671e-06
1.97554e-06
1.99165e-06
2.00659e-06
2.04213e-06
2.06348e-06
2.11101e-06
2.16461e-06
2.20816e-06
2.26241e-06
2.28955e-06
2.30966e-06
2.38079e-06
2.47707e-06
2.59857e-06
2.72978e-06
2.99243e-06
3.34751e-06
3.56724e-06
3.65403e-06
3.89824e-06
4.30498e-06
4.69276e-06
5.15522e-06
6.22107e-06
1.9216e-06
1.92215e-06
1.92128e-06
1.92198e-06
1.92066e-06
1.92273e-06
1.92125e-06
1.92362e-06
1.92285e-06
1.92498e-06
1.9253e-06
1.92643e-06
1.92921e-06
1.92926e-06
1.93507e-06
1.93685e-06
1.94269e-06
1.94865e-06
1.949e-06
1.95542e-06
1.95559e-06
1.95769e-06
1.96291e-06
1.96598e-06
1.97412e-06
1.9899e-06
2.0045e-06
2.03973e-06
2.06078e-06
2.10821e-06
2.16146e-06
2.20545e-06
2.2596e-06
2.28682e-06
2.30778e-06
2.37991e-06
2.47747e-06
2.59908e-06
2.72932e-06
2.99095e-06
3.34607e-06
3.56359e-06
3.64464e-06
3.88582e-06
4.29744e-06
4.69818e-06
5.16574e-06
6.23105e-06
1.9216e-06
1.92215e-06
1.92128e-06
1.92198e-06
1.92066e-06
1.92272e-06
1.92125e-06
1.92361e-06
1.92285e-06
1.92496e-06
1.9253e-06
1.9264e-06
1.92919e-06
1.92921e-06
1.935e-06
1.93675e-06
1.94252e-06
1.94844e-06
1.94867e-06
1.95501e-06
1.95505e-06
1.957e-06
1.96203e-06
1.96488e-06
1.97273e-06
1.98819e-06
2.00245e-06
2.03738e-06
2.05814e-06
2.10546e-06
2.15835e-06
2.20278e-06
2.25677e-06
2.28415e-06
2.30618e-06
2.37948e-06
2.47808e-06
2.59957e-06
2.7288e-06
2.9896e-06
3.34463e-06
3.55942e-06
3.63455e-06
3.87414e-06
4.29328e-06
4.70857e-06
5.17466e-06
6.23756e-06
1.9216e-06
1.92215e-06
1.92128e-06
1.92198e-06
1.92066e-06
1.92271e-06
1.92125e-06
1.92361e-06
1.92285e-06
1.92495e-06
1.92529e-06
1.92638e-06
1.92917e-06
1.92916e-06
1.93493e-06
1.93664e-06
1.94235e-06
1.94822e-06
1.94834e-06
1.9546e-06
1.9545e-06
1.95632e-06
1.96115e-06
1.96379e-06
1.97137e-06
1.98654e-06
2.00048e-06
2.03509e-06
2.05556e-06
2.10277e-06
2.15529e-06
2.20015e-06
2.25396e-06
2.28163e-06
2.3049e-06
2.37937e-06
2.47847e-06
2.59943e-06
2.72749e-06
2.98739e-06
3.3421e-06
3.55419e-06
3.62411e-06
3.86451e-06
4.2947e-06
4.72775e-06
5.18592e-06
6.25027e-06
1.9216e-06
1.92215e-06
1.92127e-06
1.92198e-06
1.92065e-06
1.92271e-06
1.92125e-06
1.9236e-06
1.92284e-06
1.92494e-06
1.92529e-06
1.92636e-06
1.92915e-06
1.92911e-06
1.93486e-06
1.93654e-06
1.94217e-06
1.94801e-06
1.94801e-06
1.95419e-06
1.95395e-06
1.95563e-06
1.96029e-06
1.96273e-06
1.97006e-06
1.98495e-06
1.9986e-06
2.03289e-06
2.05307e-06
2.10017e-06
2.15231e-06
2.19757e-06
2.25122e-06
2.27932e-06
2.30396e-06
2.37953e-06
2.47869e-06
2.59896e-06
2.72572e-06
2.98419e-06
3.33748e-06
3.54591e-06
3.6105e-06
3.85291e-06
4.2958e-06
4.74104e-06
5.19022e-06
6.25871e-06
1.9216e-06
1.92215e-06
1.92127e-06
1.92198e-06
1.92065e-06
1.9227e-06
1.92124e-06
1.92359e-06
1.92284e-06
1.92493e-06
1.92528e-06
1.92634e-06
1.92912e-06
1.92906e-06
1.93479e-06
1.93644e-06
1.94199e-06
1.9478e-06
1.94768e-06
1.95379e-06
1.95341e-06
1.95496e-06
1.95945e-06
1.9617e-06
1.96881e-06
1.98345e-06
1.99682e-06
2.0308e-06
2.0507e-06
2.09769e-06
2.14945e-06
2.19507e-06
2.24859e-06
2.27726e-06
2.30327e-06
2.37979e-06
2.47879e-06
2.5987e-06
2.72461e-06
2.98178e-06
3.33367e-06
3.53904e-06
3.59947e-06
3.84623e-06
4.30472e-06
4.75995e-06
5.19821e-06
6.26482e-06
1.92159e-06
1.92215e-06
1.92127e-06
1.92198e-06
1.92064e-06
1.9227e-06
1.92124e-06
1.92358e-06
1.92284e-06
1.92491e-06
1.92528e-06
1.92632e-06
1.9291e-06
1.92902e-06
1.93472e-06
1.93633e-06
1.94182e-06
1.94759e-06
1.94734e-06
1.95339e-06
1.95288e-06
1.9543e-06
1.95862e-06
1.96072e-06
1.96763e-06
1.98205e-06
1.99517e-06
2.02884e-06
2.04848e-06
2.09535e-06
2.14673e-06
2.19266e-06
2.24614e-06
2.2755e-06
2.3028e-06
2.38002e-06
2.47862e-06
2.59837e-06
2.72343e-06
2.97862e-06
3.32836e-06
3.53087e-06
3.5881e-06
3.8411e-06
4.31763e-06
4.77649e-06
5.20405e-06
6.26163e-06
1.92159e-06
1.92215e-06
1.92126e-06
1.92197e-06
1.92064e-06
1.92269e-06
1.92124e-06
1.92357e-06
1.92284e-06
1.9249e-06
1.92527e-06
1.92629e-06
1.92909e-06
1.92897e-06
1.93465e-06
1.93624e-06
1.94164e-06
1.94739e-06
1.94701e-06
1.953e-06
1.95236e-06
1.95367e-06
1.95783e-06
1.95979e-06
1.96654e-06
1.98077e-06
1.99367e-06
2.02703e-06
2.04644e-06
2.09317e-06
2.14418e-06
2.19038e-06
2.2439e-06
2.27407e-06
2.30258e-06
2.38032e-06
2.47854e-06
2.59856e-06
2.72279e-06
2.97523e-06
3.32203e-06
3.52196e-06
3.57692e-06
3.8378e-06
4.33023e-06
4.79045e-06
5.20769e-06
6.25057e-06
1.92159e-06
1.92215e-06
1.92126e-06
1.92197e-06
1.92063e-06
1.92268e-06
1.92123e-06
1.92356e-06
1.92283e-06
1.92489e-06
1.92527e-06
1.92627e-06
1.92907e-06
1.92892e-06
1.93458e-06
1.93614e-06
1.94147e-06
1.94719e-06
1.94669e-06
1.95261e-06
1.95185e-06
1.95305e-06
1.95708e-06
1.95892e-06
1.96554e-06
1.97962e-06
1.99234e-06
2.0254e-06
2.0446e-06
2.09118e-06
2.14184e-06
2.18827e-06
2.2419e-06
2.27297e-06
2.30255e-06
2.38063e-06
2.47862e-06
2.59944e-06
2.72292e-06
2.97196e-06
3.31555e-06
3.51389e-06
3.56782e-06
3.8384e-06
4.34459e-06
4.80513e-06
5.21213e-06
6.23343e-06
1.92159e-06
1.92215e-06
1.92125e-06
1.92197e-06
1.92063e-06
1.92268e-06
1.92123e-06
1.92355e-06
1.92283e-06
1.92487e-06
1.92526e-06
1.92625e-06
1.92905e-06
1.92888e-06
1.93452e-06
1.93605e-06
1.9413e-06
1.947e-06
1.94637e-06
1.95224e-06
1.95136e-06
1.95247e-06
1.95637e-06
1.95813e-06
1.96465e-06
1.97862e-06
1.99119e-06
2.02396e-06
2.043e-06
2.0894e-06
2.13975e-06
2.18637e-06
2.24019e-06
2.27217e-06
2.30261e-06
2.38085e-06
2.47879e-06
2.60081e-06
2.72332e-06
2.96811e-06
3.30827e-06
3.50634e-06
3.56081e-06
3.84318e-06
4.35937e-06
4.81993e-06
5.21811e-06
6.21272e-06
1.92159e-06
1.92215e-06
1.92125e-06
1.92197e-06
1.92062e-06
1.92267e-06
1.92123e-06
1.92354e-06
1.92283e-06
1.92486e-06
1.92526e-06
1.92623e-06
1.92904e-06
1.92884e-06
1.93446e-06
1.93596e-06
1.94114e-06
1.94682e-06
1.94606e-06
1.95189e-06
1.9509e-06
1.95192e-06
1.95571e-06
1.95741e-06
1.96389e-06
1.97779e-06
1.99025e-06
2.02274e-06
2.04167e-06
2.08788e-06
2.13794e-06
2.18473e-06
2.23879e-06
2.27166e-06
2.30277e-06
2.38105e-06
2.47932e-06
2.60306e-06
2.72432e-06
2.96372e-06
3.2999e-06
3.49865e-06
3.55459e-06
3.8511e-06
4.37145e-06
4.83274e-06
5.22447e-06
6.18218e-06
1.92159e-06
1.92215e-06
1.92124e-06
1.92196e-06
1.92062e-06
1.92266e-06
1.92123e-06
1.92353e-06
1.92283e-06
1.92484e-06
1.92526e-06
1.92621e-06
1.92903e-06
1.9288e-06
1.9344e-06
1.93588e-06
1.94098e-06
1.94664e-06
1.94577e-06
1.95155e-06
1.95046e-06
1.95141e-06
1.9551e-06
1.95678e-06
1.96326e-06
1.97714e-06
1.98954e-06
2.02176e-06
2.04065e-06
2.08664e-06
2.13645e-06
2.18339e-06
2.23771e-06
2.27143e-06
2.30302e-06
2.38131e-06
2.48039e-06
2.60665e-06
2.72659e-06
2.96012e-06
3.29265e-06
3.4938e-06
3.55257e-06
3.85983e-06
4.38391e-06
4.84723e-06
5.23521e-06
6.1494e-06
1.92158e-06
1.92215e-06
1.92124e-06
1.92196e-06
1.92061e-06
1.92265e-06
1.92122e-06
1.92352e-06
1.92283e-06
1.92483e-06
1.92526e-06
1.9262e-06
1.92902e-06
1.92877e-06
1.93435e-06
1.93581e-06
1.94083e-06
1.94648e-06
1.94549e-06
1.95124e-06
1.95004e-06
1.95094e-06
1.95456e-06
1.95626e-06
1.96278e-06
1.97668e-06
1.98907e-06
2.02105e-06
2.03997e-06
2.08572e-06
2.13532e-06
2.1824e-06
2.23686e-06
2.27144e-06
2.30336e-06
2.38166e-06
2.48195e-06
2.60993e-06
2.72915e-06
2.9557e-06
3.28442e-06
3.48955e-06
3.55249e-06
3.86873e-06
4.39513e-06
4.86171e-06
5.24222e-06
6.11276e-06
1.92158e-06
1.92215e-06
1.92123e-06
1.92196e-06
1.92061e-06
1.92264e-06
1.92122e-06
1.92351e-06
1.92283e-06
1.92482e-06
1.92526e-06
1.92618e-06
1.92901e-06
1.92873e-06
1.9343e-06
1.93574e-06
1.94069e-06
1.94633e-06
1.94522e-06
1.95094e-06
1.94966e-06
1.95052e-06
1.95409e-06
1.95584e-06
1.96246e-06
1.97643e-06
1.98886e-06
2.02064e-06
2.03965e-06
2.08518e-06
2.13447e-06
2.18158e-06
2.23614e-06
2.27161e-06
2.30381e-06
2.38223e-06
2.48404e-06
2.61288e-06
2.73246e-06
2.95076e-06
3.27495e-06
3.4848e-06
3.55271e-06
3.87452e-06
4.4004e-06
4.87081e-06
5.2433e-06
6.06552e-06
1.92158e-06
1.92215e-06
1.92123e-06
1.92195e-06
1.9206e-06
1.92263e-06
1.92122e-06
1.92349e-06
1.92283e-06
1.9248e-06
1.92526e-06
1.92617e-06
1.929e-06
1.92871e-06
1.93426e-06
1.93568e-06
1.94055e-06
1.94619e-06
1.94497e-06
1.95067e-06
1.94932e-06
1.95015e-06
1.95368e-06
1.95553e-06
1.9623e-06
1.9764e-06
1.98894e-06
2.02056e-06
2.03971e-06
2.08486e-06
2.13383e-06
2.18094e-06
2.23535e-06
2.27174e-06
2.30434e-06
2.38282e-06
2.48522e-06
2.61538e-06
2.73681e-06
2.94623e-06
3.26604e-06
3.48228e-06
3.5568e-06
3.88133e-06
4.40571e-06
4.88161e-06
5.24669e-06
6.02128e-06
1.92158e-06
1.92215e-06
1.92122e-06
1.92195e-06
1.9206e-06
1.92262e-06
1.92121e-06
1.92348e-06
1.92283e-06
1.92479e-06
1.92527e-06
1.92615e-06
1.929e-06
1.92868e-06
1.93422e-06
1.93563e-06
1.94043e-06
1.94606e-06
1.94474e-06
1.95042e-06
1.94901e-06
1.94983e-06
1.95335e-06
1.95534e-06
1.96233e-06
1.97661e-06
1.98931e-06
2.02077e-06
2.04002e-06
2.08479e-06
2.13337e-06
2.18015e-06
2.23407e-06
2.27162e-06
2.30473e-06
2.38317e-06
2.4852e-06
2.61659e-06
2.74091e-06
2.94016e-06
3.25473e-06
3.47816e-06
3.5605e-06
3.88329e-06
4.40474e-06
4.88695e-06
5.24511e-06
5.96784e-06
1.92158e-06
1.92215e-06
1.92122e-06
1.92194e-06
1.92059e-06
1.92261e-06
1.92121e-06
1.92347e-06
1.92283e-06
1.92478e-06
1.92527e-06
1.92614e-06
1.929e-06
1.92867e-06
1.93419e-06
1.93559e-06
1.94032e-06
1.94595e-06
1.94453e-06
1.9502e-06
1.94874e-06
1.94957e-06
1.95311e-06
1.95528e-06
1.96253e-06
1.97705e-06
1.98993e-06
2.0212e-06
2.04061e-06
2.08473e-06
2.13259e-06
2.17894e-06
2.23228e-06
2.27078e-06
2.30493e-06
2.38265e-06
2.48447e-06
2.61737e-06
2.74555e-06
2.93453e-06
3.24326e-06
3.4747e-06
3.56658e-06
3.88323e-06
4.40036e-06
4.88983e-06
5.24373e-06
5.91326e-06
1.92158e-06
1.92215e-06
1.92121e-06
1.92194e-06
1.92058e-06
1.9226e-06
1.92121e-06
1.92345e-06
1.92283e-06
1.92477e-06
1.92528e-06
1.92613e-06
1.929e-06
1.92865e-06
1.93417e-06
1.93556e-06
1.94022e-06
1.94585e-06
1.94434e-06
1.95001e-06
1.94851e-06
1.94936e-06
1.95294e-06
1.95535e-06
1.96293e-06
1.97771e-06
1.99075e-06
2.02176e-06
2.04104e-06
2.08443e-06
2.1315e-06
2.17731e-06
2.22996e-06
2.26922e-06
2.30427e-06
2.38108e-06
2.48277e-06
2.61738e-06
2.75038e-06
2.92938e-06
3.23175e-06
3.47216e-06
3.57485e-06
3.88248e-06
4.39403e-06
4.89201e-06
5.24439e-06
5.85775e-06
1.92157e-06
1.92215e-06
1.92121e-06
1.92194e-06
1.92058e-06
1.92259e-06
1.92121e-06
1.92344e-06
1.92283e-06
1.92475e-06
1.92528e-06
1.92613e-06
1.92901e-06
1.92865e-06
1.93415e-06
1.93554e-06
1.94013e-06
1.94577e-06
1.94417e-06
1.94984e-06
1.94832e-06
1.94922e-06
1.95287e-06
1.95556e-06
1.96353e-06
1.97854e-06
1.99167e-06
2.02217e-06
2.0413e-06
2.08391e-06
2.13011e-06
2.17526e-06
2.22713e-06
2.26697e-06
2.30284e-06
2.3786e-06
2.48005e-06
2.61622e-06
2.75436e-06
2.92436e-06
3.21932e-06
3.46894e-06
3.58208e-06
3.87878e-06
4.3826e-06
4.88926e-06
5.2454e-06
5.79821e-06
1.92157e-06
1.92215e-06
1.9212e-06
1.92193e-06
1.92057e-06
1.92258e-06
1.9212e-06
1.92343e-06
1.92283e-06
1.92474e-06
1.92529e-06
1.92612e-06
1.92902e-06
1.92865e-06
1.93414e-06
1.93553e-06
1.94006e-06
1.9457e-06
1.94403e-06
1.94971e-06
1.94818e-06
1.94915e-06
1.95289e-06
1.95591e-06
1.96426e-06
1.97947e-06
1.99245e-06
2.02241e-06
2.04138e-06
2.08319e-06
2.12845e-06
2.17281e-06
2.2238e-06
2.26406e-06
2.30074e-06
2.37537e-06
2.47665e-06
2.6144e-06
2.75812e-06
2.9203e-06
3.20676e-06
3.46585e-06
3.59032e-06
3.87444e-06
4.36834e-06
4.88362e-06
5.24973e-06
5.73874e-06
1.92157e-06
1.92215e-06
1.9212e-06
1.92193e-06
1.92057e-06
1.92257e-06
1.9212e-06
1.92341e-06
1.92283e-06
1.92473e-06
1.9253e-06
1.92612e-06
1.92903e-06
1.92865e-06
1.93414e-06
1.93553e-06
1.94e-06
1.94564e-06
1.94391e-06
1.9496e-06
1.94808e-06
1.94913e-06
1.953e-06
1.9564e-06
1.96513e-06
1.98029e-06
1.99309e-06
2.02251e-06
2.04132e-06
2.08228e-06
2.12654e-06
2.16999e-06
2.22001e-06
2.26053e-06
2.2979e-06
2.37119e-06
2.47211e-06
2.61118e-06
2.76068e-06
2.91708e-06
3.19362e-06
3.46177e-06
3.59836e-06
3.86831e-06
4.34938e-06
4.87204e-06
5.25916e-06
5.6785e-06
1.92157e-06
1.92215e-06
1.92119e-06
1.92192e-06
1.92056e-06
1.92256e-06
1.9212e-06
1.9234e-06
1.92283e-06
1.92472e-06
1.92531e-06
1.92612e-06
1.92905e-06
1.92866e-06
1.93414e-06
1.93554e-06
1.93995e-06
1.9456e-06
1.94382e-06
1.94952e-06
1.94802e-06
1.94919e-06
1.95321e-06
1.95701e-06
1.96593e-06
1.981e-06
1.9936e-06
2.02247e-06
2.04113e-06
2.08121e-06
2.12442e-06
2.16685e-06
2.21581e-06
2.25645e-06
2.29446e-06
2.36619e-06
2.46634e-06
2.60628e-06
2.76148e-06
2.91442e-06
3.17941e-06
3.45574e-06
3.6061e-06
3.86064e-06
4.32552e-06
4.85313e-06
5.26194e-06
5.6196e-06
1.92157e-06
1.92215e-06
1.92119e-06
1.92191e-06
1.92055e-06
1.92254e-06
1.9212e-06
1.92338e-06
1.92284e-06
1.92471e-06
1.92532e-06
1.92613e-06
1.92907e-06
1.92868e-06
1.93415e-06
1.93556e-06
1.93992e-06
1.94557e-06
1.94376e-06
1.94948e-06
1.94802e-06
1.94932e-06
1.95351e-06