/*--------------------------------*- C++ -*----------------------------------*\
  =========                 |
  \\      /  F ield         | OpenFOAM: The Open Source CFD Toolbox
   \\    /   O peration     | Website:  https://openfoam.org
    \\  /    A nd           | Version:  10
     \\/     M anipulation  |
\*---------------------------------------------------------------------------*/
FoamFile
{
    format      ascii;
    class       volScalarField;
    location    "5";
    object      nuTilda;
}
// * * * * * * * * * * * * * * * * * * * * * * * * * * * * * * * * * * * * * //

dimensions      [0 2 -1 0 0 0 0];

internalField   nonuniform List<scalar> 
38016
(
2.60969e-05
2.61026e-05
2.60995e-05
2.61006e-05
2.61017e-05
2.61034e-05
2.61044e-05
2.61103e-05
2.61046e-05
2.61203e-05
2.61104e-05
2.61277e-05
2.61221e-05
2.61373e-05
2.61382e-05
2.61555e-05
2.61643e-05
2.61873e-05
2.62024e-05
2.62377e-05
2.62673e-05
2.63062e-05
2.6354e-05
2.63833e-05
2.64329e-05
2.64953e-05
2.6529e-05
2.66568e-05
2.67459e-05
2.68223e-05
2.69917e-05
2.71072e-05
2.7475e-05
2.78358e-05
2.83075e-05
2.89648e-05
2.92768e-05
2.98713e-05
3.02832e-05
3.11092e-05
3.16914e-05
3.16804e-05
3.19391e-05
3.19768e-05
3.34808e-05
3.55029e-05
3.7197e-05
3.83862e-05
2.60968e-05
2.61026e-05
2.60994e-05
2.61005e-05
2.61016e-05
2.61033e-05
2.61043e-05
2.61103e-05
2.61045e-05
2.61203e-05
2.61103e-05
2.61277e-05
2.6122e-05
2.61372e-05
2.61381e-05
2.61555e-05
2.61641e-05
2.61873e-05
2.62023e-05
2.62376e-05
2.62672e-05
2.63058e-05
2.63535e-05
2.63822e-05
2.64311e-05
2.64933e-05
2.65265e-05
2.66528e-05
2.67416e-05
2.68183e-05
2.6988e-05
2.7104e-05
2.74739e-05
2.78342e-05
2.83075e-05
2.89626e-05
2.92753e-05
2.987e-05
3.02798e-05
3.11096e-05
3.16901e-05
3.16754e-05
3.19397e-05
3.19725e-05
3.34773e-05
3.55019e-05
3.71966e-05
3.83838e-05
2.61002e-05
2.61031e-05
2.61027e-05
2.61039e-05
2.61041e-05
2.61044e-05
2.61057e-05
2.61051e-05
2.61085e-05
2.61069e-05
2.61157e-05
2.61152e-05
2.61273e-05
2.61328e-05
2.61418e-05
2.61609e-05
2.61674e-05
2.61964e-05
2.62098e-05
2.62373e-05
2.62682e-05
2.62933e-05
2.63345e-05
2.63656e-05
2.64202e-05
2.64963e-05
2.65548e-05
2.66508e-05
2.67089e-05
2.68242e-05
2.69852e-05
2.71112e-05
2.74796e-05
2.7779e-05
2.82434e-05
2.88293e-05
2.93058e-05
2.98853e-05
3.04106e-05
3.09869e-05
3.15487e-05
3.1771e-05
3.1807e-05
3.20141e-05
3.34837e-05
3.55454e-05
3.72453e-05
3.84252e-05
2.61002e-05
2.61031e-05
2.61027e-05
2.61039e-05
2.61041e-05
2.61043e-05
2.61057e-05
2.61051e-05
2.61085e-05
2.61069e-05
2.61156e-05
2.61152e-05
2.61273e-05
2.61327e-05
2.61416e-05
2.61609e-05
2.61671e-05
2.61962e-05
2.62095e-05
2.6237e-05
2.62678e-05
2.62927e-05
2.63336e-05
2.63642e-05
2.64182e-05
2.64933e-05
2.65512e-05
2.66475e-05
2.67056e-05
2.68212e-05
2.6983e-05
2.71094e-05
2.74778e-05
2.77781e-05
2.82432e-05
2.88264e-05
2.93056e-05
2.98839e-05
3.04137e-05
3.09907e-05
3.1554e-05
3.17834e-05
3.18004e-05
3.20253e-05
3.35053e-05
3.55808e-05
3.72771e-05
3.84477e-05
2.61002e-05
2.61031e-05
2.61027e-05
2.61039e-05
2.61041e-05
2.61043e-05
2.61057e-05
2.61051e-05
2.61085e-05
2.61069e-05
2.61157e-05
2.61151e-05
2.61273e-05
2.61327e-05
2.61416e-05
2.61608e-05
2.6167e-05
2.6196e-05
2.62092e-05
2.62366e-05
2.62673e-05
2.6292e-05
2.63326e-05
2.63627e-05
2.64162e-05
2.64906e-05
2.65478e-05
2.66439e-05
2.67018e-05
2.68176e-05
2.69795e-05
2.71063e-05
2.74757e-05
2.77764e-05
2.82434e-05
2.88268e-05
2.93074e-05
2.9883e-05
3.04182e-05
3.09949e-05
3.1558e-05
3.18007e-05
3.17913e-05
3.20332e-05
3.35325e-05
3.56226e-05
3.73147e-05
3.84764e-05
2.61002e-05
2.61031e-05
2.61027e-05
2.61039e-05
2.61041e-05
2.61043e-05
2.61057e-05
2.61051e-05
2.61085e-05
2.61069e-05
2.61157e-05
2.61151e-05
2.61273e-05
2.61326e-05
2.61415e-05
2.61607e-05
2.61668e-05
2.61958e-05
2.62088e-05
2.62362e-05
2.62668e-05
2.62912e-05
2.63315e-05
2.63611e-05
2.64139e-05
2.64877e-05
2.65443e-05
2.664e-05
2.66977e-05
2.68137e-05
2.69758e-05
2.71029e-05
2.74733e-05
2.77744e-05
2.82437e-05
2.88268e-05
2.9309e-05
2.9881e-05
3.04231e-05
3.09985e-05
3.15589e-05
3.18159e-05
3.17846e-05
3.20385e-05
3.356e-05
3.56633e-05
3.73496e-05
3.85036e-05
2.61002e-05
2.61031e-05
2.61027e-05
2.61039e-05
2.61041e-05
2.61043e-05
2.61057e-05
2.61051e-05
2.61085e-05
2.61068e-05
2.61157e-05
2.61151e-05
2.61272e-05
2.61325e-05
2.61414e-05
2.61606e-05
2.61666e-05
2.61956e-05
2.62085e-05
2.62357e-05
2.62661e-05
2.62903e-05
2.63303e-05
2.63594e-05
2.64116e-05
2.64845e-05
2.65405e-05
2.66359e-05
2.66934e-05
2.68096e-05
2.69718e-05
2.70992e-05
2.74706e-05
2.7772e-05
2.82439e-05
2.88264e-05
2.93104e-05
2.98781e-05
3.04274e-05
3.10023e-05
3.15584e-05
3.18247e-05
3.17787e-05
3.20422e-05
3.35889e-05
3.57051e-05
3.73845e-05
3.85302e-05
2.61002e-05
2.61031e-05
2.61027e-05
2.61039e-05
2.61041e-05
2.61043e-05
2.61057e-05
2.61051e-05
2.61085e-05
2.61068e-05
2.61157e-05
2.6115e-05
2.61272e-05
2.61325e-05
2.61413e-05
2.61605e-05
2.61664e-05
2.61954e-05
2.62081e-05
2.62352e-05
2.62655e-05
2.62894e-05
2.6329e-05
2.63576e-05
2.6409e-05
2.64812e-05
2.65365e-05
2.66315e-05
2.66888e-05
2.68052e-05
2.69675e-05
2.70953e-05
2.74676e-05
2.77694e-05
2.82438e-05
2.88256e-05
2.93117e-05
2.98749e-05
3.04302e-05
3.10057e-05
3.15591e-05
3.18293e-05
3.17724e-05
3.20428e-05
3.36164e-05
3.57457e-05
3.7419e-05
3.85566e-05
2.61002e-05
2.61031e-05
2.61027e-05
2.61039e-05
2.61041e-05
2.61043e-05
2.61057e-05
2.6105e-05
2.61085e-05
2.61068e-05
2.61157e-05
2.6115e-05
2.61272e-05
2.61324e-05
2.61412e-05
2.61603e-05
2.61661e-05
2.61951e-05
2.62077e-05
2.62347e-05
2.62647e-05
2.62883e-05
2.63276e-05
2.63556e-05
2.64063e-05
2.64777e-05
2.65323e-05
2.66269e-05
2.66839e-05
2.68005e-05
2.69629e-05
2.7091e-05
2.74643e-05
2.77663e-05
2.82435e-05
2.88243e-05
2.93126e-05
2.98716e-05
3.04318e-05
3.10078e-05
3.15602e-05
3.18319e-05
3.17677e-05
3.20422e-05
3.36421e-05
3.57857e-05
3.74537e-05
3.85823e-05
2.61002e-05
2.61031e-05
2.61027e-05
2.61039e-05
2.61041e-05
2.61042e-05
2.61057e-05
2.6105e-05
2.61085e-05
2.61068e-05
2.61157e-05
2.6115e-05
2.61272e-05
2.61323e-05
2.61411e-05
2.61602e-05
2.61659e-05
2.61948e-05
2.62072e-05
2.62341e-05
2.6264e-05
2.62872e-05
2.63261e-05
2.63536e-05
2.64035e-05
2.64739e-05
2.65278e-05
2.6622e-05
2.66787e-05
2.67955e-05
2.6958e-05
2.70865e-05
2.74607e-05
2.7763e-05
2.82427e-05
2.88225e-05
2.93131e-05
2.98685e-05
3.04328e-05
3.10088e-05
3.15607e-05
3.18319e-05
3.17636e-05
3.20415e-05
3.36657e-05
3.58241e-05
3.74874e-05
3.86033e-05
2.61002e-05
2.61031e-05
2.61027e-05
2.61039e-05
2.61041e-05
2.61042e-05
2.61057e-05
2.6105e-05
2.61085e-05
2.61068e-05
2.61157e-05
2.61149e-05
2.61271e-05
2.61322e-05
2.6141e-05
2.616e-05
2.61656e-05
2.61945e-05
2.62068e-05
2.62335e-05
2.62631e-05
2.62861e-05
2.63245e-05
2.63513e-05
2.64004e-05
2.64699e-05
2.65231e-05
2.66168e-05
2.66732e-05
2.67902e-05
2.69527e-05
2.70816e-05
2.74567e-05
2.77593e-05
2.82415e-05
2.88203e-05
2.93129e-05
2.98657e-05
3.04333e-05
3.10093e-05
3.15609e-05
3.18297e-05
3.1759e-05
3.20407e-05
3.36878e-05
3.58624e-05
3.75227e-05
3.86232e-05
2.61002e-05
2.61031e-05
2.61027e-05
2.61039e-05
2.61041e-05
2.61042e-05
2.61057e-05
2.6105e-05
2.61085e-05
2.61067e-05
2.61157e-05
2.61149e-05
2.61271e-05
2.61321e-05
2.61408e-05
2.61599e-05
2.61653e-05
2.61941e-05
2.62063e-05
2.62328e-05
2.62622e-05
2.62848e-05
2.63228e-05
2.6349e-05
2.63972e-05
2.64657e-05
2.6518e-05
2.66113e-05
2.66674e-05
2.67847e-05
2.69471e-05
2.70765e-05
2.74524e-05
2.77552e-05
2.82397e-05
2.88176e-05
2.93118e-05
2.98633e-05
3.0433e-05
3.10091e-05
3.15608e-05
3.1827e-05
3.17538e-05
3.20392e-05
3.37079e-05
3.58993e-05
3.75582e-05
3.86417e-05
2.61002e-05
2.61031e-05
2.61027e-05
2.61039e-05
2.61041e-05
2.61042e-05
2.61057e-05
2.6105e-05
2.61085e-05
2.61067e-05
2.61157e-05
2.61148e-05
2.61271e-05
2.6132e-05
2.61407e-05
2.61597e-05
2.6165e-05
2.61938e-05
2.62057e-05
2.62321e-05
2.62612e-05
2.62835e-05
2.6321e-05
2.63465e-05
2.63938e-05
2.64613e-05
2.65128e-05
2.66055e-05
2.66612e-05
2.67788e-05
2.69411e-05
2.7071e-05
2.74477e-05
2.77507e-05
2.82373e-05
2.88145e-05
2.931e-05
2.98611e-05
3.0432e-05
3.10078e-05
3.15601e-05
3.18242e-05
3.17484e-05
3.20381e-05
3.37281e-05
3.59353e-05
3.75925e-05
3.86564e-05
2.61002e-05
2.61031e-05
2.61027e-05
2.61039e-05
2.61041e-05
2.61042e-05
2.61057e-05
2.6105e-05
2.61085e-05
2.61067e-05
2.61157e-05
2.61148e-05
2.6127e-05
2.61319e-05
2.61406e-05
2.61595e-05
2.61647e-05
2.61934e-05
2.62051e-05
2.62313e-05
2.62602e-05
2.62821e-05
2.63191e-05
2.63438e-05
2.63902e-05
2.64566e-05
2.65072e-05
2.65994e-05
2.66548e-05
2.67726e-05
2.69348e-05
2.70653e-05
2.74426e-05
2.77458e-05
2.82343e-05
2.8811e-05
2.93074e-05
2.98586e-05
3.04303e-05
3.10054e-05
3.15584e-05
3.18208e-05
3.17424e-05
3.20374e-05
3.37499e-05
3.59719e-05
3.76263e-05
3.86703e-05
2.61002e-05
2.61031e-05
2.61027e-05
2.61039e-05
2.61041e-05
2.61042e-05
2.61057e-05
2.6105e-05
2.61085e-05
2.61067e-05
2.61157e-05
2.61147e-05
2.6127e-05
2.61318e-05
2.61404e-05
2.61593e-05
2.61644e-05
2.6193e-05
2.62045e-05
2.62305e-05
2.62591e-05
2.62806e-05
2.63171e-05
2.6341e-05
2.63864e-05
2.64517e-05
2.65014e-05
2.6593e-05
2.6648e-05
2.67661e-05
2.69281e-05
2.70592e-05
2.7437e-05
2.77404e-05
2.82307e-05
2.88069e-05
2.93042e-05
2.98555e-05
3.04274e-05
3.10019e-05
3.1556e-05
3.18169e-05
3.17356e-05
3.20367e-05
3.37722e-05
3.60072e-05
3.76574e-05
3.86833e-05
2.61002e-05
2.61031e-05
2.61027e-05
2.61039e-05
2.61041e-05
2.61042e-05
2.61057e-05
2.6105e-05
2.61085e-05
2.61066e-05
2.61156e-05
2.61146e-05
2.61269e-05
2.61317e-05
2.61402e-05
2.61591e-05
2.6164e-05
2.61925e-05
2.62038e-05
2.62296e-05
2.62579e-05
2.6279e-05
2.63149e-05
2.63381e-05
2.63825e-05
2.64466e-05
2.64953e-05
2.65863e-05
2.66409e-05
2.67593e-05
2.69211e-05
2.70529e-05
2.74311e-05
2.77345e-05
2.82266e-05
2.88022e-05
2.93003e-05
2.98516e-05
3.04228e-05
3.09973e-05
3.1553e-05
3.18125e-05
3.17281e-05
3.20362e-05
3.37949e-05
3.60404e-05
3.76844e-05
3.86907e-05
2.61002e-05
2.61031e-05
2.61027e-05
2.61039e-05
2.61041e-05
2.61042e-05
2.61057e-05
2.6105e-05
2.61085e-05
2.61066e-05
2.61156e-05
2.61146e-05
2.61269e-05
2.61316e-05
2.61401e-05
2.61588e-05
2.61636e-05
2.6192e-05
2.62031e-05
2.62287e-05
2.62567e-05
2.62773e-05
2.63126e-05
2.6335e-05
2.63783e-05
2.64412e-05
2.64889e-05
2.65792e-05
2.66334e-05
2.67522e-05
2.69136e-05
2.70463e-05
2.74246e-05
2.77281e-05
2.8222e-05
2.87969e-05
2.92955e-05
2.98468e-05
3.04168e-05
3.0992e-05
3.15499e-05
3.18072e-05
3.17199e-05
3.20362e-05
3.38185e-05
3.60735e-05
3.77115e-05
3.87023e-05
2.61002e-05
2.61031e-05
2.61027e-05
2.61039e-05
2.61041e-05
2.61042e-05
2.61057e-05
2.61049e-05
2.61085e-05
2.61066e-05
2.61156e-05
2.61145e-05
2.61268e-05
2.61315e-05
2.61399e-05
2.61586e-05
2.61632e-05
2.61915e-05
2.62024e-05
2.62277e-05
2.62554e-05
2.62755e-05
2.63102e-05
2.63317e-05
2.63739e-05
2.64356e-05
2.64822e-05
2.65719e-05
2.66257e-05
2.67448e-05
2.69058e-05
2.70394e-05
2.74177e-05
2.77212e-05
2.82169e-05
2.87911e-05
2.92897e-05
2.9841e-05
3.04098e-05
3.09866e-05
3.15465e-05
3.1801e-05
3.17112e-05
3.20355e-05
3.38396e-05
3.61017e-05
3.77329e-05
3.87108e-05
2.61002e-05
2.61031e-05
2.61027e-05
2.61039e-05
2.61041e-05
2.61042e-05
2.61057e-05
2.61049e-05
2.61085e-05
2.61065e-05
2.61156e-05
2.61145e-05
2.61267e-05
2.61313e-05
2.61397e-05
2.61583e-05
2.61628e-05
2.6191e-05
2.62016e-05
2.62267e-05
2.6254e-05
2.62736e-05
2.63077e-05
2.63283e-05
2.63694e-05
2.64297e-05
2.64753e-05
2.65644e-05
2.66176e-05
2.67372e-05
2.68976e-05
2.70322e-05
2.74103e-05
2.77139e-05
2.82112e-05
2.8785e-05
2.92833e-05
2.98344e-05
3.04023e-05
3.09807e-05
3.15418e-05
3.17936e-05
3.1703e-05
3.20354e-05
3.38589e-05
3.61264e-05
3.77521e-05
3.87169e-05
2.61002e-05
2.61031e-05
2.61026e-05
2.61039e-05
2.6104e-05
2.61042e-05
2.61057e-05
2.61049e-05
2.61085e-05
2.61065e-05
2.61156e-05
2.61144e-05
2.61267e-05
2.61312e-05
2.61395e-05
2.6158e-05
2.61623e-05
2.61904e-05
2.62008e-05
2.62256e-05
2.62525e-05
2.62716e-05
2.63051e-05
2.63248e-05
2.63647e-05
2.64237e-05
2.64682e-05
2.65565e-05
2.66092e-05
2.67293e-05
2.6889e-05
2.70248e-05
2.74024e-05
2.77064e-05
2.82051e-05
2.87786e-05
2.92763e-05
2.98274e-05
3.03946e-05
3.09741e-05
3.15353e-05
3.17848e-05
3.16948e-05
3.20344e-05
3.38749e-05
3.61472e-05
3.77684e-05
3.87254e-05
2.61002e-05
2.61031e-05
2.61026e-05
2.61039e-05
2.6104e-05
2.61042e-05
2.61057e-05
2.61049e-05
2.61085e-05
2.61065e-05
2.61156e-05
2.61143e-05
2.61266e-05
2.6131e-05
2.61393e-05
2.61577e-05
2.61619e-05
2.61898e-05
2.61999e-05
2.62244e-05
2.6251e-05
2.62696e-05
2.63023e-05
2.63211e-05
2.63598e-05
2.64174e-05
2.64608e-05
2.65484e-05
2.66006e-05
2.67211e-05
2.688e-05
2.70172e-05
2.7394e-05
2.76988e-05
2.81988e-05
2.87717e-05
2.92688e-05
2.98203e-05
3.03866e-05
3.09663e-05
3.1527e-05
3.17751e-05
3.1686e-05
3.20304e-05
3.38848e-05
3.6162e-05
3.77818e-05
3.87341e-05
2.61002e-05
2.61031e-05
2.61026e-05
2.61039e-05
2.6104e-05
2.61042e-05
2.61057e-05
2.61049e-05
2.61085e-05
2.61064e-05
2.61156e-05
2.61142e-05
2.61265e-05
2.61309e-05
2.6139e-05
2.61574e-05
2.61614e-05
2.61891e-05
2.6199e-05
2.62232e-05
2.62494e-05
2.62674e-05
2.62995e-05
2.63173e-05
2.63547e-05
2.6411e-05
2.64533e-05
2.65401e-05
2.65917e-05
2.67128e-05
2.68707e-05
2.70095e-05
2.73854e-05
2.76913e-05
2.81926e-05
2.87645e-05
2.92609e-05
2.9813e-05
3.0378e-05
3.09565e-05
3.15167e-05
3.17653e-05
3.16773e-05
3.20236e-05
3.38893e-05
3.61721e-05
3.77932e-05
3.87398e-05
2.61002e-05
2.61031e-05
2.61026e-05
2.61038e-05
2.6104e-05
2.61042e-05
2.61057e-05
2.61049e-05
2.61085e-05
2.61064e-05
2.61156e-05
2.61142e-05
2.61265e-05
2.61307e-05
2.61388e-05
2.61571e-05
2.61608e-05
2.61885e-05
2.6198e-05
2.62219e-05
2.62477e-05
2.62652e-05
2.62965e-05
2.63134e-05
2.63496e-05
2.64044e-05
2.64455e-05
2.65315e-05
2.65826e-05
2.67042e-05
2.68611e-05
2.70016e-05
2.73766e-05
2.7684e-05
2.81866e-05
2.87569e-05
2.92529e-05
2.98057e-05
3.03683e-05
3.09446e-05
3.15047e-05
3.17551e-05
3.1667e-05
3.20125e-05
3.38877e-05
3.61777e-05
3.78021e-05
3.87493e-05
2.61002e-05
2.61031e-05
2.61026e-05
2.61038e-05
2.6104e-05
2.61042e-05
2.61056e-05
2.61049e-05
2.61085e-05
2.61064e-05
2.61155e-05
2.61141e-05
2.61264e-05
2.61305e-05
2.61385e-05
2.61567e-05
2.61603e-05
2.61877e-05
2.6197e-05
2.62206e-05
2.6246e-05
2.62629e-05
2.62935e-05
2.63094e-05
2.63443e-05
2.63977e-05
2.64377e-05
2.65228e-05
2.65733e-05
2.66955e-05
2.68513e-05
2.69938e-05
2.7368e-05
2.76769e-05
2.81808e-05
2.87493e-05
2.92448e-05
2.97979e-05
3.03572e-05
3.09312e-05
3.14923e-05
3.17447e-05
3.16541e-05
3.1996e-05
3.38799e-05
3.61802e-05
3.78122e-05
3.87614e-05
2.61002e-05
2.61031e-05
2.61026e-05
2.61038e-05
2.6104e-05
2.61042e-05
2.61056e-05
2.61048e-05
2.61085e-05
2.61063e-05
2.61155e-05
2.6114e-05
2.61263e-05
2.61304e-05
2.61383e-05
2.61564e-05
2.61597e-05
2.6187e-05
2.61959e-05
2.62192e-05
2.62442e-05
2.62605e-05
2.62903e-05
2.63052e-05
2.63389e-05
2.63909e-05
2.64297e-05
2.6514e-05
2.65638e-05
2.66866e-05
2.68413e-05
2.69861e-05
2.73597e-05
2.76701e-05
2.8175e-05
2.87417e-05
2.92366e-05
2.97893e-05
3.03446e-05
3.0917e-05
3.14804e-05
3.1734e-05
3.16378e-05
3.1973e-05
3.38642e-05
3.61757e-05
3.78163e-05
3.87663e-05
2.61002e-05
2.61031e-05
2.61026e-05
2.61038e-05
2.6104e-05
2.61042e-05
2.61056e-05
2.61048e-05
2.61085e-05
2.61063e-05
2.61155e-05
2.61139e-05
2.61262e-05
2.61302e-05
2.6138e-05
2.6156e-05
2.61591e-05
2.61863e-05
2.61949e-05
2.62178e-05
2.62423e-05
2.6258e-05
2.62871e-05
2.6301e-05
2.63334e-05
2.6384e-05
2.64216e-05
2.65051e-05
2.65543e-05
2.66777e-05
2.68314e-05
2.69786e-05
2.73518e-05
2.76638e-05
2.81693e-05
2.87341e-05
2.92285e-05
2.97801e-05
3.0331e-05
3.09028e-05
3.14688e-05
3.17224e-05
3.16184e-05
3.19465e-05
3.38462e-05
3.6172e-05
3.78239e-05
3.87727e-05
2.61002e-05
2.61031e-05
2.61026e-05
2.61038e-05
2.6104e-05
2.61041e-05
2.61056e-05
2.61048e-05
2.61085e-05
2.61062e-05
2.61155e-05
2.61138e-05
2.61261e-05
2.613e-05
2.61377e-05
2.61556e-05
2.61585e-05
2.61855e-05
2.61937e-05
2.62164e-05
2.62405e-05
2.62555e-05
2.62839e-05
2.62968e-05
2.63279e-05
2.63771e-05
2.64135e-05
2.64961e-05
2.65447e-05
2.66688e-05
2.68216e-05
2.69716e-05
2.73443e-05
2.76578e-05
2.81636e-05
2.87265e-05
2.92204e-05
2.97706e-05
3.03173e-05
3.08893e-05
3.14567e-05
3.17067e-05
3.15923e-05
3.19131e-05
3.38222e-05
3.61648e-05
3.78304e-05
3.87739e-05
2.61002e-05
2.61032e-05
2.61026e-05
2.61038e-05
2.6104e-05
2.61041e-05
2.61056e-05
2.61048e-05
2.61085e-05
2.61062e-05
2.61155e-05
2.61137e-05
2.6126e-05
2.61298e-05
2.61374e-05
2.61552e-05
2.61578e-05
2.61847e-05
2.61926e-05
2.62149e-05
2.62385e-05
2.6253e-05
2.62806e-05
2.62925e-05
2.63224e-05
2.63702e-05
2.64054e-05
2.64872e-05
2.65351e-05
2.666e-05
2.6812e-05
2.69651e-05
2.73372e-05
2.76523e-05
2.81579e-05
2.87191e-05
2.92125e-05
2.97608e-05
3.0304e-05
3.0877e-05
3.1444e-05
3.16871e-05
3.15599e-05
3.18732e-05
3.37919e-05
3.61522e-05
3.78312e-05
3.87596e-05
2.61002e-05
2.61032e-05
2.61026e-05
2.61038e-05
2.6104e-05
2.61041e-05
2.61056e-05
2.61048e-05
2.61085e-05
2.61062e-05
2.61154e-05
2.61136e-05
2.61259e-05
2.61296e-05
2.61371e-05
2.61548e-05
2.61572e-05
2.61839e-05
2.61914e-05
2.62134e-05
2.62366e-05
2.62504e-05
2.62772e-05
2.62882e-05
2.63168e-05
2.63633e-05
2.63974e-05
2.64783e-05
2.65257e-05
2.66514e-05
2.68028e-05
2.69593e-05
2.73305e-05
2.76472e-05
2.81526e-05
2.87123e-05
2.92052e-05
2.97513e-05
3.02911e-05
3.08645e-05
3.14287e-05
3.16624e-05
3.1523e-05
3.18312e-05
3.37615e-05
3.61419e-05
3.78359e-05
3.87368e-05
2.61002e-05
2.61032e-05
2.61026e-05
2.61038e-05
2.6104e-05
2.61041e-05
2.61056e-05
2.61047e-05
2.61084e-05
2.61061e-05
2.61154e-05
2.61135e-05
2.61258e-05
2.61294e-05
2.61368e-05
2.61544e-05
2.61565e-05
2.6183e-05
2.61902e-05
2.62119e-05
2.62346e-05
2.62478e-05
2.62739e-05
2.62839e-05
2.63114e-05
2.63566e-05
2.63895e-05
2.64696e-05
2.65164e-05
2.66432e-05
2.67941e-05
2.69542e-05
2.73243e-05
2.76425e-05
2.8148e-05
2.87064e-05
2.91988e-05
2.97424e-05
3.02791e-05
3.08509e-05
3.14079e-05
3.16289e-05
3.14773e-05
3.17816e-05
3.37229e-05
3.61237e-05
3.78334e-05
3.87012e-05
2.61002e-05
2.61032e-05
2.61026e-05
2.61038e-05
2.6104e-05
2.61041e-05
2.61056e-05
2.61047e-05
2.61084e-05
2.61061e-05
2.61154e-05
2.61134e-05
2.61257e-05
2.61292e-05
2.61365e-05
2.6154e-05
2.61558e-05
2.61822e-05
2.6189e-05
2.62104e-05
2.62327e-05
2.62452e-05
2.62706e-05
2.62796e-05
2.6306e-05
2.63499e-05
2.63818e-05
2.64611e-05
2.65074e-05
2.66354e-05
2.67861e-05
2.695e-05
2.73187e-05
2.76387e-05
2.81445e-05
2.87019e-05
2.91934e-05
2.97346e-05
3.02683e-05
3.0837e-05
3.13837e-05
3.15905e-05
3.14283e-05
3.17303e-05
3.36822e-05
3.61033e-05
3.78346e-05
3.86546e-05
2.61002e-05
2.61032e-05
2.61026e-05
2.61038e-05
2.6104e-05
2.61041e-05
2.61056e-05
2.61047e-05
2.61084e-05
2.6106e-05
2.61154e-05
2.61133e-05
2.61256e-05
2.61289e-05
2.61362e-05
2.61535e-05
2.61551e-05
2.61813e-05
2.61878e-05
2.62088e-05
2.62307e-05
2.62426e-05
2.62672e-05
2.62754e-05
2.63007e-05
2.63435e-05
2.63743e-05
2.64528e-05
2.64987e-05
2.66283e-05
2.67789e-05
2.69465e-05
2.73139e-05
2.7636e-05
2.81427e-05
2.86989e-05
2.91889e-05
2.97274e-05
3.02578e-05
3.08209e-05
3.13547e-05
3.15478e-05
3.13782e-05
3.16797e-05
3.36441e-05
3.60868e-05
3.78252e-05
3.86017e-05
2.61002e-05
2.61032e-05
2.61026e-05
2.61038e-05
2.6104e-05
2.61041e-05
2.61056e-05
2.61047e-05
2.61084e-05
2.6106e-05
2.61154e-05
2.61132e-05
2.61255e-05
2.61287e-05
2.61359e-05
2.61531e-05
2.61544e-05
2.61805e-05
2.61865e-05
2.62073e-05
2.62287e-05
2.62401e-05
2.6264e-05
2.62713e-05
2.62956e-05
2.63374e-05
2.63672e-05
2.6445e-05
2.64907e-05
2.66218e-05
2.67726e-05
2.69439e-05
2.73101e-05
2.76349e-05
2.81427e-05
2.86974e-05
2.91856e-05
2.97211e-05
3.02473e-05
3.08016e-05
3.13197e-05
3.14995e-05
3.13241e-05
3.16247e-05
3.36023e-05
3.60687e-05
3.78037e-05
3.85438e-05
2.61002e-05
2.61032e-05
2.61026e-05
2.61038e-05
2.6104e-05
2.61041e-05
2.61056e-05
2.61047e-05
2.61084e-05
2.61059e-05
2.61153e-05
2.61131e-05
2.61254e-05
2.61285e-05
2.61355e-05
2.61527e-05
2.61537e-05
2.61797e-05
2.61853e-05
2.62058e-05
2.62268e-05
2.62375e-05
2.62608e-05
2.62673e-05
2.62908e-05
2.63315e-05
2.63604e-05
2.64377e-05
2.64832e-05
2.66162e-05
2.67674e-05
2.69422e-05
2.73075e-05
2.76356e-05
2.81443e-05
2.86972e-05
2.9183e-05
2.97159e-05
3.02376e-05
3.07809e-05
3.12821e-05
3.14499e-05
3.12707e-05
3.15704e-05
3.35619e-05
3.60533e-05
3.77726e-05
3.84812e-05
2.61002e-05
2.61032e-05
2.61026e-05
2.61038e-05
2.6104e-05
2.61041e-05
2.61056e-05
2.61046e-05
2.61084e-05
2.61059e-05
2.61153e-05
2.6113e-05
2.61253e-05
2.61283e-05
2.61352e-05
2.61523e-05
2.61529e-05
2.61788e-05
2.61841e-05
2.62043e-05
2.62249e-05
2.62351e-05
2.62576e-05
2.62634e-05
2.62861e-05
2.6326e-05
2.63541e-05
2.64309e-05
2.64766e-05
2.66115e-05
2.67633e-05
2.69416e-05
2.73064e-05
2.76384e-05
2.81476e-05
2.86977e-05
2.91809e-05
2.97112e-05
3.02272e-05
3.07572e-05
3.12408e-05
3.13993e-05
3.12188e-05
3.15174e-05
3.35237e-05
3.60456e-05
3.77353e-05
3.84133e-05
2.61002e-05
2.61032e-05
2.61026e-05
2.61038e-05
2.6104e-05
2.6104e-05
2.61056e-05
2.61046e-05
2.61084e-05
2.61058e-05
2.61153e-05
2.61129e-05
2.61252e-05
2.61281e-05
2.61349e-05
2.61519e-05
2.61522e-05
2.6178e-05
2.61829e-05
2.62028e-05
2.6223e-05
2.62327e-05
2.62546e-05
2.62598e-05
2.62818e-05
2.63209e-05
2.63484e-05
2.64247e-05
2.6471e-05
2.66078e-05
2.67604e-05
2.69421e-05
2.7307e-05
2.76434e-05
2.81524e-05
2.86993e-05
2.91799e-05
2.97076e-05
3.02163e-05
3.07297e-05
3.11946e-05
3.13448e-05
3.11642e-05
3.14604e-05
3.34812e-05
3.60145e-05
3.76822e-05
3.83376e-05
2.61002e-05
2.61032e-05
2.61026e-05
2.61038e-05
2.6104e-05
2.6104e-05
2.61056e-05
2.61046e-05
2.61084e-05
2.61058e-05
2.61153e-05
2.61128e-05
2.61251e-05
2.61278e-05
2.61346e-05
2.61515e-05
2.61515e-05
2.61772e-05
2.61817e-05
2.62014e-05
2.62212e-05
2.62303e-05
2.62517e-05
2.62563e-05
2.62779e-05
2.63163e-05
2.63433e-05
2.64194e-05
2.64664e-05
2.66052e-05
2.67588e-05
2.6944e-05
2.73096e-05
2.76505e-05
2.81586e-05
2.8702e-05
2.91806e-05
2.97061e-05
3.02061e-05
3.0701e-05
3.11469e-05
3.1291e-05
3.11121e-05
3.14056e-05
3.34415e-05
3.59719e-05
3.76213e-05
3.82594e-05
2.61002e-05
2.61032e-05
2.61025e-05
2.61038e-05
2.61039e-05
2.6104e-05
2.61056e-05
2.61046e-05
2.61084e-05
2.61057e-05
2.61153e-05
2.61127e-05
2.61251e-05
2.61276e-05
2.61343e-05
2.61511e-05
2.61508e-05
2.61764e-05
2.61805e-05
2.62e-05
2.62195e-05
2.62281e-05
2.6249e-05
2.62531e-05
2.62743e-05
2.63122e-05
2.63389e-05
2.64149e-05
2.64629e-05
2.66038e-05
2.67585e-05
2.69475e-05
2.73143e-05
2.76599e-05
2.81662e-05
2.87057e-05
2.91827e-05
2.97057e-05
3.01951e-05
3.06691e-05
3.1096e-05
3.12356e-05
3.10599e-05
3.13494e-05
3.34008e-05
3.59135e-05
3.75496e-05
3.81758e-05
2.61002e-05
2.61032e-05
2.61025e-05
2.61038e-05
2.61039e-05
2.6104e-05
2.61056e-05
2.61045e-05
2.61084e-05
2.61057e-05
2.61153e-05
2.61126e-05
2.6125e-05
2.61274e-05
2.6134e-05
2.61507e-05
2.61501e-05
2.61757e-05
2.61794e-05
2.61987e-05
2.62179e-05
2.6226e-05
2.62464e-05
2.62502e-05
2.62711e-05
2.63087e-05
2.63352e-05
2.64113e-05
2.64607e-05
2.66036e-05
2.67596e-05
2.69526e-05
2.73214e-05
2.76715e-05
2.81752e-05
2.8711e-05
2.91869e-05
2.97071e-05
3.01838e-05
3.0635e-05
3.10429e-05
3.11802e-05
3.10094e-05
3.12941e-05
3.33574e-05
3.58418e-05
3.74704e-05
3.80949e-05
2.61002e-05
2.61032e-05
2.61025e-05
2.61038e-05
2.61039e-05
2.6104e-05
2.61055e-05
2.61045e-05
2.61084e-05
2.61056e-05
2.61153e-05
2.61125e-05
2.61249e-05
2.61272e-05
2.61337e-05
2.61503e-05
2.61495e-05
2.6175e-05
2.61783e-05
2.61975e-05
2.62164e-05
2.62241e-05
2.6244e-05
2.62475e-05
2.62684e-05
2.63058e-05
2.63325e-05
2.64088e-05
2.64598e-05
2.66047e-05
2.67622e-05
2.69595e-05
2.73309e-05
2.76854e-05
2.81855e-05
2.87179e-05
2.91935e-05
2.97106e-05
3.01728e-05
3.05997e-05
3.09887e-05
3.11255e-05
3.09609e-05
3.12395e-05
3.32991e-05
3.57556e-05
3.73832e-05
3.80118e-05
2.61002e-05
2.61032e-05
2.61025e-05
2.61038e-05
2.61039e-05
2.6104e-05
2.61055e-05
2.61045e-05
2.61084e-05
2.61056e-05
2.61153e-05
2.61124e-05
2.61248e-05
2.6127e-05
2.61334e-05
2.615e-05
2.61488e-05
2.61743e-05
2.61773e-05
2.61963e-05
2.62149e-05
2.62222e-05
2.62418e-05
2.62452e-05
2.62662e-05
2.63036e-05
2.63306e-05
2.64074e-05
2.64602e-05
2.66071e-05
2.67664e-05
2.69685e-05
2.73428e-05
2.77013e-05
2.81971e-05
2.87265e-05
2.92023e-05
2.9716e-05
3.01625e-05
3.05642e-05
3.0935e-05
3.10731e-05
3.09165e-05
3.11885e-05
3.32287e-05
3.56581e-05
3.72917e-05
3.79298e-05
2.61001e-05
2.61032e-05
2.61025e-05
2.61038e-05
2.61039e-05
2.6104e-05
2.61055e-05
2.61045e-05
2.61084e-05
2.61055e-05
2.61153e-05
2.61123e-05
2.61248e-05
2.61268e-05
2.61331e-05
2.61497e-05
2.61482e-05
2.61737e-05
2.61764e-05
2.61953e-05
2.62136e-05
2.62206e-05
2.62398e-05
2.62433e-05
2.62645e-05
2.63021e-05
2.63297e-05
2.64072e-05
2.64621e-05
2.66109e-05
2.67723e-05
2.69795e-05
2.73555e-05
2.77193e-05
2.82101e-05
2.8737e-05
2.92135e-05
2.97235e-05
3.01528e-05
3.05281e-05
3.08808e-05
3.10218e-05
3.08749e-05
3.11394e-05
3.31439e-05
3.55471e-05
3.71944e-05
3.78513e-05
2.61001e-05
2.61032e-05
2.61025e-05
2.61038e-05
2.61039e-05
2.6104e-05
2.61055e-05
2.61044e-05
2.61084e-05
2.61055e-05
2.61153e-05
2.61122e-05
2.61247e-05
2.61267e-05
2.61329e-05
2.61494e-05
2.61476e-05
2.61731e-05
2.61755e-05
2.61943e-05
2.62124e-05
2.62191e-05
2.62381e-05
2.62417e-05
2.62634e-05
2.63014e-05
2.63298e-05
2.64084e-05
2.64653e-05
2.66163e-05
2.67787e-05
2.69898e-05
2.73674e-05
2.77382e-05
2.82248e-05
2.87498e-05
2.92254e-05
2.97304e-05
3.01447e-05
3.04925e-05
3.08266e-05
3.09711e-05
3.08351e-05
3.10928e-05
3.30429e-05
3.54201e-05
3.70875e-05
3.77719e-05
2.61001e-05
2.61032e-05
2.61025e-05
2.61038e-05
2.61039e-05
2.61039e-05
2.61055e-05
2.61044e-05
2.61084e-05
2.61054e-05
2.61153e-05
2.61121e-05
2.61247e-05
2.61265e-05
2.61327e-05
2.61491e-05
2.61471e-05
2.61725e-05
2.61747e-05
2.61934e-05
2.62113e-05
2.62178e-05
2.62366e-05
2.62405e-05
2.62629e-05
2.63015e-05
2.63311e-05
2.64108e-05
2.64697e-05
2.66206e-05
2.67841e-05
2.6999e-05
2.73782e-05
2.77555e-05
2.82405e-05
2.87627e-05
2.92357e-05
2.97358e-05
3.0139e-05
3.04587e-05
3.07741e-05
3.09233e-05
3.08001e-05
3.10468e-05
3.29312e-05
3.52827e-05
3.69775e-05
3.77101e-05
2.61001e-05
2.61032e-05
2.61025e-05
2.61038e-05
2.61039e-05
2.61039e-05
2.61055e-05
2.61044e-05
2.61084e-05
2.61054e-05
2.61153e-05
2.6112e-05
2.61246e-05
2.61264e-05
2.61325e-05
2.61489e-05
2.61466e-05
2.6172e-05
2.6174e-05
2.61926e-05
2.62103e-05
2.62167e-05
2.62354e-05
2.62397e-05
2.6263e-05
2.63025e-05
2.63334e-05
2.64138e-05
2.64731e-05
2.66237e-05
2.67883e-05
2.70071e-05
2.73876e-05
2.77708e-05
2.82542e-05
2.87736e-05
2.92437e-05
2.97385e-05
3.01353e-05
3.04256e-05
3.07209e-05
3.08747e-05
3.07658e-05
3.09912e-05
3.28031e-05
3.51281e-05
3.68562e-05
3.76478e-05
2.61001e-05
2.61032e-05
2.61025e-05
2.61037e-05
2.61039e-05
2.61039e-05
2.61055e-05
2.61044e-05
2.61084e-05
2.61054e-05
2.61153e-05
2.61119e-05
2.61246e-05
2.61262e-05
2.61323e-05
2.61487e-05
2.61461e-05
2.61716e-05
2.61733e-05
2.6192e-05
2.62095e-05
2.62158e-05
2.62344e-05
2.62393e-05
2.62638e-05
2.63044e-05
2.63361e-05
2.6416e-05
2.64757e-05
2.66257e-05
2.67913e-05
2.70137e-05
2.73953e-05
2.77839e-05
2.82659e-05
2.87828e-05
2.92503e-05
2.97398e-05
3.01361e-05
3.03965e-05
3.06707e-05
3.0829e-05
3.07363e-05
3.09328e-05
3.26653e-05
3.49621e-05
3.67285e-05
3.75913e-05
2.61001e-05
2.61032e-05
2.61025e-05
2.61037e-05
2.61039e-05
2.61039e-05
2.61055e-05
2.61043e-05
2.61084e-05
2.61053e-05
2.61153e-05
2.61119e-05
2.61246e-05
2.61261e-05
2.61321e-05
2.61485e-05
2.61457e-05
2.61712e-05
2.61727e-05
2.61914e-05
2.62088e-05
2.62151e-05
2.62337e-05
2.62394e-05
2.62652e-05
2.63067e-05
2.63382e-05
2.64176e-05
2.64773e-05
2.66264e-05
2.67931e-05
2.70188e-05
2.7401e-05
2.77944e-05
2.82751e-05
2.87896e-05
2.92546e-05
2.97389e-05
3.01387e-05
3.03714e-05
3.06231e-05
3.07854e-05
3.07109e-05
3.08717e-05
3.25165e-05
3.47826e-05
3.65923e-05
3.75399e-05
2.61001e-05
2.61032e-05
2.61025e-05
2.61037e-05
2.61039e-05
2.61039e-05
2.61055e-05
2.61043e-05
2.61084e-05
2.61053e-05
2.61153e-05
2.61118e-05
2.61246e-05
2.6126e-05
2.6132e-05
2.61484e-05
2.61454e-05
2.61709e-05
2.61723e-05
2.61909e-05
2.62083e-05
2.62146e-05
2.62333e-05
2.624e-05
2.62674e-05
2.63087e-05
2.63398e-05
2.64184e-05
2.64779e-05
2.66259e-05
2.67935e-05
2.70221e-05
2.74044e-05
2.7802e-05
2.82818e-05
2.87937e-05
2.92563e-05
2.9735e-05
3.01394e-05
3.03507e-05
3.05778e-05
3.07427e-05
3.06883e-05
3.08087e-05
3.23572e-05
3.45879e-05
3.64434e-05
3.74764e-05
2.61001e-05
2.61032e-05
2.61025e-05
2.61037e-05
2.61038e-05
2.61038e-05
2.61055e-05
2.61043e-05
2.61084e-05
2.61052e-05
2.61153e-05
2.61117e-05
2.61246e-05
2.61259e-05
2.61319e-05
2.61482e-05
2.61451e-05
2.61706e-05
2.61719e-05
2.61906e-05
2.62079e-05
2.62143e-05
2.62332e-05
2.62411e-05
2.62692e-05
2.63103e-05
2.63409e-05
2.64185e-05
2.64778e-05
2.66243e-05
2.67927e-05
2.70235e-05
2.74053e-05
2.78065e-05
2.82856e-05
2.87947e-05
2.92547e-05
2.97277e-05
3.01376e-05
3.03351e-05
3.05355e-05
3.07009e-05
3.06682e-05
3.07461e-05
3.21884e-05
3.43773e-05
3.62802e-05
3.74063e-05
2.61001e-05
2.61032e-05
2.61025e-05
2.61037e-05
2.61038e-05
2.61038e-05
2.61054e-05
2.61043e-05
2.61084e-05
2.61052e-05
2.61154e-05
2.61117e-05
2.61246e-05
2.61259e-05
2.61319e-05
2.61482e-05
2.61449e-05
2.61704e-05
2.61716e-05
2.61904e-05
2.62076e-05
2.62142e-05
2.62334e-05
2.62426e-05
2.62709e-05
2.63115e-05
2.63416e-05
2.64179e-05
2.64767e-05
2.66217e-05
2.67905e-05
2.70229e-05
2.74034e-05
2.78073e-05
2.82857e-05
2.87914e-05
2.92485e-05
2.97147e-05
3.01303e-05
3.03237e-05
3.04947e-05
3.06578e-05
3.0648e-05
3.06841e-05
3.20098e-05
3.41481e-05
3.60975e-05
3.73279e-05
2.61001e-05
2.61032e-05
2.61024e-05
2.61037e-05
2.61038e-05
2.61038e-05
2.61054e-05
2.61042e-05
2.61084e-05
2.61052e-05
2.61154e-05
2.61117e-05
2.61246e-05
2.61258e-05
2.61318e-05
2.61481e-05
2.61447e-05
2.61703e-05
2.61714e-05
2.61902e-05
2.62075e-05
2.62143e-05
2.62339e-05
2.62441e-05
2.62722e-05
2.63124e-05
2.63418e-05
2.64168e-05
2.6475e-05
2.6618e-05
2.67869e-05
2.702e-05
2.73984e-05
2.78042e-05
2.82814e-05
2.87835e-05
2.92363e-05
2.96947e-05
3.01154e-05
3.03158e-05
3.04548e-05
3.06117e-05
3.06252e-05
3.06242e-05
3.18221e-05
3.38986e-05
3.58909e-05
3.72357e-05
2.61001e-05
2.61032e-05
2.61024e-05
2.61037e-05
2.61038e-05
2.61038e-05
2.61054e-05
2.61042e-05
2.61084e-05
2.61052e-05
2.61154e-05
2.61116e-05
2.61247e-05
2.61258e-05