/*--------------------------------*- C++ -*----------------------------------*\
  =========                 |
  \\      /  F ield         | OpenFOAM: The Open Source CFD Toolbox
   \\    /   O peration     | Website:  https://openfoam.org
    \\  /    A nd           | Version:  10
     \\/     M anipulation  |
\*---------------------------------------------------------------------------*/
FoamFile
{
    format      ascii;
    class       volScalarField;
    location    "5";
    object      p;
}
// * * * * * * * * * * * * * * * * * * * * * * * * * * * * * * * * * * * * * //

dimensions      [0 2 -2 0 0 0 0];

internalField   nonuniform List<scalar> 
38016
(
4.41487
5.44139
5.63464
5.92665
6.13268
6.28336
5.41148
6.11249
4.13034
4.40234
1.50838
0.0512344
-3.53455
-8.27862
-12.9569
-20.1476
-26.4669
-34.0806
-41.177
-47.8185
-53.1912
-55.0502
-53.476
-43.5443
-23.7555
0.521975
27.4555
46.1465
57.7731
59.0748
50.3128
38.4009
30.4527
16.5103
9.93687
3.50677
-34.0993
-72.4434
-76.1295
-86.5021
-97.6182
-135.379
-156.169
-172.205
-187.168
-207.488
-227.977
-254.825
4.62137
5.22289
5.65981
5.90086
6.09073
6.07329
5.65003
5.6383
4.51885
3.83363
1.96726
-0.218534
-3.38839
-8.01125
-13.2121
-19.9327
-26.9118
-34.4209
-41.6636
-48.3157
-53.4263
-55.5179
-53.6921
-43.444
-23.7392
1.27287
27.7527
47.2571
59.1488
63.1562
58.8423
49.6243
37.8772
21.4455
5.39743
-13.1375
-33.9779
-55.7258
-73.9592
-96.8117
-114.646
-132.075
-152.753
-170.638
-190.204
-207.47
-226.295
-253.085
4.68925
5.17394
5.66679
5.88963
6.07274
6.01981
5.71012
5.53415
4.61445
3.74181
2.07717
-0.223273
-3.35637
-7.91482
-13.3086
-19.9586
-27.1611
-34.7673
-42.1264
-48.877
-54.0004
-56.1456
-54.1883
-43.7325
-23.8209
1.82767
28.535
48.7388
61.1403
65.9411
63.0377
54.5854
41.7812
24.8979
6.15275
-15.6068
-32.5511
-50.2302
-72.7013
-97.1422
-117.642
-130.734
-150.655
-169.447
-189.289
-206.724
-225.541
-251.055
4.72048
5.18772
5.67981
5.89312
6.07999
6.02062
5.7162
5.53997
4.62483
3.7623
2.0942
-0.187375
-3.33962
-7.89248
-13.3388
-20.0448
-27.3371
-35.0823
-42.5585
-49.4684
-54.7004
-56.9018
-54.9058
-44.2956
-24.0646
2.21852
29.5543
50.338
63.2071
68.2687
65.5441
57.1578
44.3194
27.5962
8.99119
-12.6864
-30.2821
-48.6629
-70.8126
-93.5099
-114.148
-129.266
-148.848
-167.275
-186.18
-204.263
-223.06
-246.623
4.75309
5.20044
5.69259
5.89819
6.08507
6.02168
5.72299
5.54251
4.63751
3.77868
2.11274
-0.153986
-3.32293
-7.87051
-13.3706
-20.1316
-27.5157
-35.4004
-42.9941
-50.0648
-55.4044
-57.6662
-55.6305
-44.8704
-24.3302
2.59814
30.5565
51.9151
65.2574
70.6064
68.1005
59.8165
46.9561
30.3849
11.8766
-9.74359
-27.8635
-46.7803
-68.6116
-90.0899
-110.795
-127.196
-146.181
-164.174
-182.192
-200.04
-218.238
-239.692
4.78571
5.21322
5.70537
5.90328
6.09013
6.02282
5.72968
5.5452
4.65009
3.79522
2.13127
-0.120484
-3.3061
-7.84859
-13.4022
-20.2187
-27.6947
-35.7198
-43.4318
-50.6646
-56.1138
-58.4387
-56.3673
-45.4622
-24.6186
2.95046
31.5292
53.4641
67.2816
72.9211
70.6294
62.4481
49.5764
33.1655
14.7666
-6.76785
-25.3892
-44.766
-66.2761
-86.8798
-107.367
-124.625
-142.9
-160.281
-177.32
-194.271
-211.434
-230.846
4.81834
5.2261
5.71812
5.90843
6.09513
6.02405
5.73626
5.54801
4.66258
3.8119
2.14982
-0.0868657
-3.28909
-7.82665
-13.4337
-20.306
-27.874
-36.0398
-43.8708
-51.2671
-56.8275
-59.218
-57.1146
-46.0696
-24.9295
3.27212
32.4638
54.9697
69.2582
75.1862
73.1
65.0177
52.1407
35.8821
17.5792
-3.83649
-22.8992
-42.6461
-63.8583
-83.8697
-103.806
-121.435
-139.005
-155.649
-171.663
-187.318
-203.042
-220.505
4.85098
5.23906
5.73085
5.91365
6.10008
6.02538
5.74275
5.55095
4.67501
3.82872
2.16841
-0.0530936
-3.27183
-7.80459
-13.4647
-20.3932
-28.053
-36.3602
-44.3107
-51.8715
-57.5445
-60.0033
-57.8716
-46.692
-25.2629
3.56092
33.3553
56.4245
71.1771
77.3899
75.4995
67.5125
54.6342
38.5131
20.2825
-0.974846
-20.3999
-40.4034
-61.2937
-80.9044
-100.093
-117.584
-134.4
-150.2
-165.162
-179.437
-193.53
-209.091
4.88364
5.25212
5.74356
5.91892
6.10497
6.0268
5.74914
5.55403
4.68737
3.84571
2.18707
-0.0191251
-3.25426
-7.7823
-13.4952
-20.4801
-28.2316
-36.6804
-44.7507
-52.4769
-58.2638
-60.7933
-58.6369
-47.3282
-25.6182
3.8167
34.2022
57.8255
73.0341
79.5278
77.824
69.9299
57.0541
41.0538
22.8697
1.8155
-17.8823
-38.011
-58.5162
-77.7768
-96.1864
-113.163
-129.124
-143.956
-157.78
-170.701
-183.165
-196.784
4.91629
5.26526
5.75625
5.92426
6.10982
6.02832
5.75543
5.55725
4.69966
3.86287
2.20581
0.0150904
-3.23628
-7.75964
-13.5249
-20.5663
-28.4091
-36.9998
-45.1899
-53.0822
-58.984
-61.5862
-59.4087
-47.9763
-25.9936
4.04038
35.0043
59.1712
74.8266
81.5973
80.0718
72.2703
59.4007
43.5056
25.3447
4.54083
-15.3336
-35.4454
-55.4991
-74.3351
-91.9933
-108.241
-123.245
-137.021
-149.684
-161.375
-172.457
-184.45
4.94896
5.27849
5.76892
5.92966
6.11461
6.02995
5.76162
5.56061
4.71192
3.88024
2.22469
0.049612
-3.2178
-7.73645
-13.5536
-20.6514
-28.5851
-37.3175
-45.6275
-53.6861
-59.7033
-62.3801
-60.1844
-48.6336
-26.3868
4.23366
35.7619
60.4608
76.5527
83.5967
82.2417
74.5344
61.6758
45.8739
27.7201
7.21146
-12.7382
-32.6879
-52.2332
-70.5247
-87.4288
-102.838
-116.818
-129.481
-140.97
-151.48
-161.323
-171.872
4.98163
5.29182
5.78157
5.93512
6.11936
6.03167
5.76773
5.56413
4.72414
3.89783
2.24375
0.0845086
-3.19871
-7.71255
-13.5809
-20.7351
-28.7589
-37.6327
-46.062
-54.2869
-60.4197
-63.1722
-60.9611
-49.2967
-26.7945
4.39911
36.4763
61.6943
78.2111
85.5246
84.3336
76.724
63.8825
48.1672
30.0167
9.84143
-10.0757
-29.7319
-48.7143
-66.3529
-82.4655
-96.9892
-109.96
-121.546
-131.921
-141.321
-150.018
-159.236
5.01431
5.30523
5.7942
5.94065
6.12405
6.0335
5.77376
5.56781
4.73633
3.91567
2.26301
0.11986
-3.17886
-7.68771
-13.6066
-20.8167
-28.9297
-37.9442
-46.4921
-54.8827
-61.1306
-63.9595
-61.735
-49.9613
-27.2124
4.54029
37.1496
62.8724
79.8015
87.3805
86.348
78.8414
66.0263
50.3967
32.2625
12.4486
-7.32254
-26.58
-44.9452
-61.8463
-77.1249
-90.7426
-102.758
-113.379
-122.822
-131.344
-139.188
-147.446
5.047
5.31874
5.80681
5.94625
6.12871
6.03543
5.7797
5.57166
4.74853
3.93379
2.28255
0.155757
-3.1581
-7.66169
-13.6302
-20.8957
-29.0967
-38.2509
-46.9159
-55.4711
-61.833
-64.7382
-62.5016
-50.6224
-27.6351
4.66189
37.785
63.9972
81.3246
89.1652
88.2866
80.8904
68.1145
52.5759
34.4881
15.0544
-4.45613
-23.232
-40.9317
-57.0383
-71.4679
-84.1871
-95.2667
-104.932
-113.45
-121.112
-128.147
-135.531
5.07969
5.33233
5.81941
5.9519
6.13332
6.03748
5.78558
5.5757
4.76074
3.95222
2.30242
0.192304
-3.13626
-7.63419
-13.6512
-20.9714
-29.2588
-38.5512
-47.3316
-56.0495
-62.5234
-65.5039
-63.2555
-51.2738
-28.0562
4.76989
38.3872
65.072
82.7825
90.8804
90.1524
82.8758
70.1564
54.72
36.7232
17.6845
-1.45943
-19.6798
-36.6808
-51.9692
-65.564
-77.4451
-87.6984
-96.5447
-104.269
-111.175
-117.484
-124.076
5.11239
5.34602
5.832
5.95763
6.13789
6.03965
5.79139
5.57994
4.77299
3.97102
2.3227
0.22962
-3.11312
-7.60489
-13.6691
-21.0429
-29.4148
-38.8435
-47.7368
-56.6147
-63.1977
-66.2514
-63.9904
-51.908
-28.4678
4.8716
38.962
66.1013
84.1785
92.5296
91.9502
84.8041
72.163
56.8459
38.9939
20.368
1.67877
-15.9178
-32.201
-46.6728
-59.4278
-70.4764
-79.9669
-88.1514
-95.3102
-101.716
-107.564
-113.653
5.14509
5.3598
5.84457
5.96343
6.14242
6.04194
5.79714
5.58439
4.7853
3.99021
2.34344
0.267841
-3.08847
-7.57341
-13.6833
-21.1094
-29.5633
-39.1258
-48.1287
-57.1631
-63.8511
-66.9748
-64.699
-52.5165
-28.8606
4.97588
39.517
67.0915
85.5179
94.1179
93.6868
86.6838
74.1468
58.9732
41.3229
23.1359
4.96796
-11.9506
-27.5
-41.179
-53.1128
-63.3275
-72.0273
-79.5093
-86.0616
-91.9328
-97.2944
-102.871
5.17779
5.37368
5.85714
5.9693
6.14692
6.04436
5.80283
5.58907
4.79769
4.00986
2.36476
0.307116
-3.06204
-7.53932
-13.6932
-21.1698
-29.7029
-39.3959
-48.5045
-57.6907
-64.4783
-67.6671
-65.3728
-53.0893
-29.2237
5.09328
40.0612
68.0507
86.8078
95.6523
95.3712
88.526
76.1219
61.1237
43.7318
26.0171
8.42094
-7.78506
-22.5759
-35.4851
-46.6734
-56.2005
-64.2901
-71.2335
-77.2998
-82.7163
-87.6448
-92.7507
5.2105
5.38765
5.86969
5.97525
6.15139
6.04691
5.80849
5.59401
4.8102
4.03002
2.38673
0.347616
-3.03354
-7.50215
-13.6978
-21.2229
-29.8318
-39.6513
-48.8606
-58.1927
-65.0731
-68.3206
-66.0022
-53.6151
-29.5446
5.2362
40.606
68.9891
88.0575
97.1426
97.0151
90.3442
78.1043
63.3203
46.2419
29.0349
12.0542
-3.42529
-17.4353
-29.5689
-40.0172
-48.9061
-56.4931
-63.0497
-68.8003
-73.9353
-78.6051
-83.4274
5.24321
5.40172
5.88224
5.98127
6.15584
6.0496
5.81411
5.59921
4.82285
4.05076
2.40947
0.389531
-3.00264
-7.46137
-13.6964
-21.2675
-29.948
-39.8893
-49.1932
-58.6639
-65.6284
-68.9263
-66.5763
-54.0808
-29.8088
5.41896
41.1645
69.9189
89.2789
98.6007
98.6326
92.1544
80.1117
65.5839
48.8733
32.2047
15.8829
1.12861
-12.1142
-23.5139
-33.2526
-41.4879
-48.5037
-54.5714
-59.8976
-64.6548
-68.9852
-73.46
5.27592
5.4159
5.89478
5.98737
6.16026
6.05245
5.8197
5.60471
4.83569
4.07214
2.4331
0.433072
-2.96899
-7.41638
-13.688
-21.302
-30.0493
-40.1067
-49.4979
-59.0984
-66.1365
-69.4742
-67.0826
-54.4717
-30
5.65798
41.7523
70.8548
90.486
100.041
100.24
93.9742
82.1628
67.9325
51.6423
35.5361
19.916
5.88731
-6.60728
-17.3448
-26.5142
-34.2857
-40.9257
-46.6735
-51.7115
-56.2008
-60.2838
-64.4935
5.30864
5.43017
5.90732
5.99355
6.16466
6.05545
5.82529
5.61054
4.84874
4.09425
2.45774
0.478471
-2.93218
-7.36651
-13.6715
-21.3247
-30.1334
-40.2999
-49.7699
-59.4895
-66.5886
-69.9533
-67.5074
-54.7715
-30.0998
5.97184
42.3872
71.814
91.6961
101.481
101.857
95.8225
84.2762
70.3803
54.5619
39.037
24.1505
10.8442
-0.902749
-10.9619
-19.5503
-26.8721
-33.1783
-38.6663
-43.4857
-47.7825
-51.6989
-55.7331
5.34135
5.44454
5.91986
5.99982
6.16905
6.05862
5.83087
5.61671
4.86206
4.11716
2.48354
0.525985
-2.89177
-7.31104
-13.6457
-21.334
-30.1974
-40.4652
-50.0036
-59.8299
-66.975
-70.351
-67.8353
-54.9619
-30.088
6.38134
43.0895
72.8161
92.9286
102.939
103.503
97.7191
86.4706
72.9405
57.6423
42.7156
28.5756
15.9598
4.89486
-4.54785
-12.5888
-19.4491
-25.369
-30.5254
-35.0557
-39.1021
-42.8049
-46.627
5.37407
5.45902
5.9324
6.00618
6.17343
6.06197
5.83646
5.62327
4.87568
4.14099
2.51065
0.575893
-2.84728
-7.24916
-13.6093
-21.3277
-30.2384
-40.5981
-50.1933
-60.1114
-67.2848
-70.6537
-68.0495
-55.023
-29.9419
6.90957
43.882
73.8834
94.2061
104.438
105.201
99.6849
88.764
75.627
60.8926
46.5774
33.1797
21.2227
10.7627
1.81375
-5.84287
-12.4137
-18.0992
-23.0467
-27.3859
-31.2606
-34.8142
-38.4786
5.40679
5.47362
5.94494
6.01264
6.17781
6.0655
5.84208
5.63024
4.88966
4.16581
2.53925
0.628501
-2.79819
-7.18
-13.5608
-21.3037
-30.2532
-40.694
-50.3322
-60.3252
-67.5064
-70.8465
-68.1317
-54.9328
-29.637
7.58186
44.7901
75.0405
95.554
106.003
106.976
101.742
91.1751
78.4561
64.3203
50.6177
37.9287
26.5961
16.7137
8.25058
0.979582
-5.29615
-10.7431
-15.4868
-19.6522
-23.3821
-26.8182
-30.3611
5.43951
5.48832
5.95749
6.01919
6.18219
6.06924
5.84775
5.63766
4.90405
4.19176
2.56952
0.684138
-2.74391
-7.10261
-13.4987
-21.2596
-30.2381
-40.7477
-50.4132
-60.4615
-67.6269
-70.913
-68.0616
-54.6678
-29.1466
8.42576
45.8416
76.3151
97.0001
107.659
108.854
103.912
93.7236
81.4458
67.9307
54.829
42.7837
31.9967
22.6026
14.5489
7.61502
1.61979
-3.58156
-8.10808
-12.0877
-15.6644
-18.9775
-22.3963
5.47223
5.50313
5.97005
6.02584
6.18658
6.07319
5.85347
5.64558
4.9189
4.21893
2.60164
0.74316
-2.68385
-7.01594
-13.4213
-21.1927
-30.1893
-40.7537
-50.4286
-60.5096
-67.6323
-70.8356
-67.8179
-54.2026
-28.4424
9.47094
47.0667
77.737
98.5752
109.437
110.862
106.221
96.4304
84.6137
71.7272
59.2091
47.7519
37.4554
28.47
20.7212
14.0125
8.1956
3.15177
-1.23273
-5.09006
-8.56603
-11.7979
-15.1273
5.50494
5.51806
5.98263
6.0326
6.19099
6.07737
5.85926
5.65402
4.93428
4.24747
2.63583
0.805946
-2.61733
-6.9189
-13.3266
-21.1003
-30.1026
-40.7058
-50.3699
-60.4583
-67.5078
-70.5956
-67.3776
-53.5103
-27.494
10.7488
48.4979
79.3385
100.313
111.368
113.028
108.694
99.3174
87.9762
75.7078
63.7451
52.8258
42.9941
34.4044
26.9662
20.5014
14.8844
10.0127
5.77271
2.02839
-1.36395
-4.53462
-7.79585
5.53766
5.53311
5.99522
6.03947
6.19542
6.08179
5.86515
5.66305
4.95024
4.27749
2.6723
0.872897
-2.54365
-6.8103
-13.2129
-20.9794
-29.9734
-40.5976
-50.2281
-60.2954
-67.2374
-70.1729
-66.7165
-52.5626
-26.2698
12.2924
50.1692
81.1539
102.247
113.484
115.383
111.355
102.406
91.5471
79.8682
68.4155
57.9599
48.5277
40.2765
33.1085
26.8642
21.4354
16.7253
12.6164
8.97029
5.64823
2.52739
-0.677965
5.57037
5.54829
6.00783
6.04646
6.19989
6.08647
5.87115
5.6727
4.96686
4.30915
2.71129
0.944438
-2.46208
-6.68889
-13.078
-20.8267
-29.797
-40.4221
-49.9937
-60.0079
-66.8044
-69.5466
-65.8093
-51.3301
-24.7371
14.136
52.1167
83.2194
104.416
115.82
117.956
114.231
105.718
95.3351
84.198
73.201
63.1442
54.059
46.0929
39.1429
33.0724
27.7914
23.207
19.1969
15.6215
12.3471
9.25808
6.09174
5.60308
5.56359
6.02046
6.05358
6.20439
6.09141
5.87729
5.68301
4.9842
4.34257
2.75304
1.02101
-2.37184
-6.55335
-12.9196
-20.6388
-29.5682
-40.1721
-49.6564
-59.5821
-66.1909
-68.6946
-64.6295
-49.7825
-22.8621
16.3152
54.3778
85.5731
106.857
118.412
120.78
117.349
109.27
99.3412
88.6756
78.0689
68.3542
59.5801
51.8727
45.1226
39.2111
34.0608
29.5798
25.6427
22.1118
18.8605
15.7805
12.6298
5.63579
5.57903
6.03312
6.06082
6.20895
6.09665
5.88358
5.69405
5.00234
4.37792
2.79779
1.10309
-2.27211
-6.40228
-12.7355
-20.4123
-29.2818
-39.8397
-49.2055
-59.0038
-65.3787
-67.5941
-63.1501
-47.8889
-20.6105
18.8658
56.9907
88.2541
109.61
121.294
123.887
120.737
113.079
103.563
93.2816
82.9879
73.5465
65.0262
57.5267
50.9386
45.1606
40.1223
35.7277
31.8474
28.346
25.1044
22.0221
18.8753
5.6685
5.5946
6.04581
6.0682
6.21356
6.10219
5.89004
5.70585
5.02134
4.41535
2.84581
1.19113
-2.16204
-6.23425
-12.5233
-20.1432
-28.932
-39.417
-48.6299
-58.258
-64.3486
-66.2219
-61.3437
-45.6183
-17.9483
21.824
59.9943
91.302
112.714
124.504
127.308
124.423
117.16
108
98.0152
87.9662
78.74
70.415
63.0583
56.566
50.8568
45.8691
41.5049
37.6327
34.1202
30.8551
27.7431
24.5752
5.7012
5.61031
6.05854
6.07572
6.21825
6.10805
5.89671
5.71848
5.04128
4.455
2.89734
1.28563
-2.04078
-6.04777
-12.2805
-19.8278
-28.5132
-38.8955
-47.9181
-57.3295
-63.0814
-64.5544
-59.1829
-42.9399
-14.8419
25.2255
63.4269
94.7566
116.208
128.077
131.078
128.437
121.525
112.658
102.891
93.0332
83.9824
75.815
68.5663
62.1412
56.4755
51.5127
47.1526
43.2632
39.7167
36.4075
33.2471
30.0391
5.73389
5.62616
6.07131
6.08338
6.22301
6.11425
5.90359
5.73198
5.06223
4.49705
2.95266
1.38708
-1.90744
-5.84135
-12.0045
-19.4621
-28.0192
-38.2667
-47.0583
-56.2028
-61.5576
-62.5683
-56.6407
-39.824
-11.2587
29.1046
67.3261
98.6566
120.13
132.051
135.23
132.806
126.195
117.552
107.933
98.2181
89.295
81.2282
74.0285
67.6185
61.9522
56.9766
52.5881
48.6537
45.0493
41.6756
38.4486
35.1826
5.76658
5.64217
6.08413
6.09121
6.22787
6.12081
5.91071
5.74641
5.08427
4.54163
3.01203
1.49597
-1.76115
-5.61345
-11.6927
-19.0421
-27.4442
-37.5219
-46.0386
-54.8625
-59.758
-60.2405
-53.6909
-36.242
-7.16835
33.4941
71.7282
103.04
124.517
136.463
139.799
137.561
131.19
122.707
113.183
103.566
94.7227
86.6985
79.4875
73.0346
67.3124
62.2732
57.8118
53.795
50.1026
46.6397
43.3255
39.9821
5.79927
5.65833
6.09699
6.0992
6.23282
6.12774
5.91811
5.76181
5.10747
4.5889
3.0757
1.61278
-1.60103
-5.36257
-11.3427
-18.5637
-26.782
-36.6524
-44.8473
-53.293
-57.6636
-57.5488
-50.3088
-32.1676
-2.54252
38.4245
76.6669
107.942
129.407
141.35
144.821
142.734
136.539
128.156
118.68
109.118
100.305
92.2727
85.0095
78.4831
72.6799
67.554
62.9978
58.8783
55.0783
51.5075
48.0878
44.6475
5.83194
5.67465
6.10991
6.10736
6.23789
6.13506
5.92578
5.77824
5.1319
4.63901
3.14391
1.73797
-1.42624
-5.08722
-10.9519
-18.023
-26.0267
-35.6496
-43.4728
-51.4797
-55.2566
-54.4727
-46.4716
-27.5769
2.64389
43.9229
82.1731
113.398
134.834
146.753
150.332
148.358
142.274
133.935
124.463
114.908
106.064
97.9595
90.5858
83.9359
78.0085
72.7583
68.0753
63.826
59.8962
56.1988
52.6572
49.1036
5.86461
5.69114
6.12289
6.1157
6.24308
6.14279
5.93377
5.79574
5.15761
4.69209
3.21691
1.87198
-1.23595
-4.78599
-10.5179
-17.4162
-25.1725
-34.5053
-41.9039
-49.4083
-52.5201
-50.9929
-42.159
-22.4491
8.41231
50.0131
88.2744
119.436
140.832
152.709
156.371
154.467
148.433
140.086
130.577
120.979
112.052
103.822
96.2908
89.4744
83.382
77.9702
73.1275
68.7201
64.6356
60.7891
57.1044
53.4162
5.89727
5.70781
6.13594
6.12422
6.24841
6.15095
5.94209
5.81436
5.18468
4.74827
3.29491
2.01523
-1.02941
-4.45753
-10.0384
-16.7395
-24.214
-33.2117
-40.1302
-47.0659
-49.439
-47.0928
-37.3536
-16.7672
14.7798
56.7141
94.994
126.087
147.434
159.258
162.976
161.102
155.061
146.656
137.068
127.372
118.301
109.894
102.164
95.1467
88.8568
83.2527
78.2226
73.6325
69.3718
65.3568
61.511
57.6688
5.92991
5.72465
6.14906
6.13295
6.25389
6.15955
5.95076
5.83413
5.21316
4.80764
3.37811
2.16808
-0.805913
-4.10062
-9.51126
-15.9897
-23.146
-31.7614
-38.1423
-44.4406
-46.0001
-42.7584
-32.0416
-10.5187
21.7586
64.0403
102.35
133.373
154.671
166.438
170.188
168.304
162.205
153.696
143.985
134.132
124.85
116.198
108.209
100.936
94.4
88.5623
83.3103
78.5089
74.0477
69.8425
65.8156
61.7993
5.96255
5.74168
6.16226
6.14188
6.25952
6.16861
5.95979
5.8551
5.2431
4.87032
3.46669
2.33084
-0.564849
-3.71417
-8.93467
-15.1637
-21.9641
-30.1482
-35.9317
-41.5226
-42.1928
-37.979
-26.2134
-3.69568
29.3555
72.0004
110.357
141.315
162.572
174.287
178.048
176.118
169.915
161.258
151.378
141.31
131.758
122.806
114.507
106.93
100.102
93.9892
88.4805
83.4391
78.7533
74.3372
70.1097
65.8973
5.99517
5.7589
6.17554
6.15102
6.26533
6.17814
5.96922
5.87729
5.27453
4.93637
3.56078
2.50377
-0.305709
-3.29729
-8.30707
-14.2589
-20.6644
-28.3666
-33.4919
-38.3042
-38.0093
-32.7475
-19.8638
3.70434
37.5715
80.5972
119.023
149.931
171.164
182.841
186.598
184.591
178.246
169.396
159.298
148.954
139.07
129.762
121.104
113.177
106.015
99.5896
93.7929
88.4861
83.5551
78.9106
74.4661
70.0393
6.02778
5.77633
6.18892
6.16039
6.27132
6.18817
5.97904
5.90072
5.30749
5.00584
3.66049
2.68706
-0.0281022
-2.84928
-7.62727
-13.2734
-19.2442
-26.4125
-30.8177
-34.7799
-33.445
-27.061
-12.9926
11.6782
46.4012
89.8273
128.349
159.232
180.472
192.134
195.881
193.772
187.251
178.172
167.812
157.139
146.865
137.145
128.078
119.756
112.217
105.443
99.3283
93.7308
88.532
83.6373
78.9539
74.2902
6.06037
5.79397
6.20239
6.16998
6.27751
6.19869
5.98928
5.92543
5.34201
5.07875
3.7659
2.8808
0.268221
-2.36971
-6.8945
-12.2058
-17.7014
-24.2834
-27.9063
-30.9473
-28.4991
-20.9213
-5.60514
20.2168
55.8329
99.6808
138.333
169.225
190.512
202.195
205.937
203.71
196.99
187.648
176.986
165.942
155.235
145.062
135.543
126.781
118.825
111.668
105.21
99.3023
93.8174
88.6527
83.7067
78.7807
6.09294
5.81182
6.21597
6.17982
6.2839
6.20972
5.99995
5.95142
5.37809
5.15512
3.87702
3.08501
0.58336
-1.85839
-6.10846
-11.0556
-16.0353
-21.9781
-24.7572
-26.8069
-23.1747
-14.3347
2.28784
29.3047
65.8483
110.141
148.962
179.912
201.301
213.052
216.805
214.458
207.522
197.888
186.89
175.434
164.254
153.59
143.587
134.355
125.951
118.385
111.557
105.308
99.5011
94.029
88.7896
83.5761
6.12549
5.8299
6.22965
6.18992
6.29051
6.22128
6.01106
5.97869
5.41573
5.23491
3.99386
3.29962
0.917243
-1.31546
-5.26939
-9.82298
-14.2463
-19.4976
-21.3722
-22.3628
-17.4791
-7.31284
10.6697
38.9203
76.4223
121.185
160.222
191.287
212.846
224.725
228.522
226.065
218.907
208.96
197.597
185.696
174.005
162.808
152.279
142.536
133.647
125.64
118.414
111.797
105.646
99.8471
94.2874
88.7523
6.15801
5.84822
6.24345
6.20027
6.29735
6.23337
6.02262
6.00724
5.45494
5.31807
4.11633
3.52444
1.26962
-0.74137
-4.37808
-8.50906
-12.3365
-16.8447
-17.7563
-17.6226
-11.4242
0.127419
19.5179
49.0357
87.5232
132.781
172.088
203.34
225.149
237.232
241.122
238.582
231.209
220.934
209.179
196.806
184.571
172.806
161.714
151.425
142.018
133.534
125.869
118.843
112.306
106.144
100.234
94.3531
6.19051
5.86678
6.25738
6.21089
6.30443
6.246
6.03463
6.03706
5.49569
5.4045
4.24434
3.75921
1.64005
-0.136923
-3.43592
-7.11595
-10.3092
-14.0245
-13.9171
-12.5976
-5.02638
7.96399
28.8041
59.6167
99.1131
144.895
184.529
216.048
238.202
250.58
254.634
252.059
244.495
233.886
221.711
208.841
196.035
183.666
171.974
161.103
151.141
142.143
134.005
126.542
119.596
113.04
106.747
100.482
6.22298
5.8856
6.27144
6.2218
6.31176
6.25918
6.0471
6.06814
5.53794
5.4941
4.37772
4.00352
2.02791
0.49674
-2.44493
-5.64673
-8.1692
-11.0442
-9.86522
-7.30293
1.69345
16.1695
38.4942
70.6233
111.148
157.481
197.507
229.385
251.989
264.771
269.08
266.54
258.828
247.895
235.285
221.897
208.499
195.502
183.182
171.699
161.153
151.606
142.958
135.023
127.634
120.655
113.952
107.275
6.25541
5.90468
6.28564
6.233
6.31935
6.27292
6.06003
6.10045
5.58167
5.58671
4.51627
4.2569
2.43236
1.15812
-1.40773
-4.1055
-5.92306
-7.91336
-5.61449
-1.75763
8.70984
24.7116
48.5488
82.0099
123.577
170.491
210.976
243.312
266.485
279.797
284.479
282.068
274.273
263.046
250.006
236.096
222.099
208.458
195.481
183.352
172.184
162.045
152.847
144.4
136.531
129.095
121.947
114.822
6.28781
5.92404
6.29998
6.2445
6.3272
6.28721
6.07343
6.13395
5.62681
5.68217
4.65973
4.51876
2.8524
1.84537
-0.327575
-2.49734
-3.57873
-4.64358
-1.18153
4.01569
15.9931
33.5531
58.9234
93.7256
136.345
183.869
224.882
257.783
281.654
295.641
300.837
298.68
290.893
279.428
265.986
251.574
236.999
222.723
209.089
196.305
184.497
173.746
163.973
154.993
146.625
138.705
131.081
123.473
6.32016
5.94368
6.31447
6.25632
6.33534
6.30208
6.08729
6.16861
5.67331
5.78028
4.8078
4.78841
3.28683
2.55633
0.791726
-0.828294
-1.14566
-1.24872
3.41421
9.99093
23.5095
42.6525
69.5689
105.715
149.393
197.553
239.165
272.741
297.448
312.272
318.15
316.402
308.749
297.134
283.339
268.454
253.328
238.432
224.14
210.693
198.225
186.827
176.441
166.885
157.973
149.535
141.41
133.291
6.35246
5.96361
6.32912
6.26847
6.34377
6.31751
6.10161
6.20438
5.7211
5.88082
4.96014
5.06508
3.73428
3.28851
1.94582
0.894722
1.36536
2.25547
8.15072
16.1389
31.2219
51.9643
80.4322
117.919
162.655
211.477
253.757
288.119
313.807
329.645
336.397
335.244
327.884
316.247
302.179
286.864
271.226
255.758
240.838
226.732
213.598
201.543
190.526
180.38
170.911
161.933
153.273
144.601
6.38471
5.98386
6.34393
6.28095
6.3525
6.33351
6.11641
6.24122
5.77011
5.98355
5.11638
5.34793
4.19325
4.03916
3.12987
2.66401
3.94236
5.85151
13.0038
22.4277
39.0901
61.4399
91.4567
130.274
176.062
225.568
268.583
303.841
330.661
347.701
355.54
355.197
348.317
336.804
322.562
306.881
290.788
274.799
259.294
244.56
230.771
218.047
206.374
195.605
185.543
175.998
166.786
157.541
6.4169
6.00442
6.35893
6.29378
6.36153
6.35008
6.13166
6.27906
5.82025
6.08821
5.27612
5.63606
4.6621
4.80532
4.33867
4.4712
6.57236
9.52049
17.9473
28.8231
47.0711
71.0275
102.583
142.714
189.545
239.752
283.562
319.823
347.924
366.363
375.52
376.223
370.038
358.827
344.535
328.568
312.076
295.618
279.555
264.193
249.741
236.334
223.985
212.57
201.895
191.758
181.96
172.103
6.44902
6.0253
6.3741
6.30697
6.37089
6.36724
6.14738
6.31786
5.87144
6.19455
5.43892
5.9285
5.1391
5.58383
5.56668
6.30743
9.24164
13.2424
22.9537
35.2892
55.1204
80.6738
113.75
155.172
203.028
253.95
298.609
335.972
365.5
385.537
396.252
398.258
393.008
382.305
368.122
351.962
335.112
318.228
301.668
285.728
270.639
256.552
243.513
231.43
220.116
209.367
198.967
188.473
6.48107
6.04653
6.38946
6.32054
6.38057
6.38497
6.16357
6.35755
5.9236
6.30228
5.60435
6.22428
5.62244
6.37141
6.8082
8.16349
11.9359
16.9966
27.9946
41.789
63.1921
90.3239
124.895
167.578
216.438
268.081
313.635
352.191
383.282
405.113
417.63
421.209
417.156
407.188
393.289
377.036
359.864
342.576
325.541
309.035
293.306
278.523
264.766
251.979
239.992
228.596
217.563
206.402
6.51304
6.06811
6.40501
6.3345
6.39059
6.40328
6.18022
6.39808
5.97664
6.41113
5.77194
6.52238
6.11028
7.16472
8.05741
10.03
14.6408
20.7619
33.0412
48.2851
71.2397
99.9226
135.954
179.864
229.699
282.064
328.549
368.374
401.155
424.964
439.525
444.957
442.38
433.4
419.987
403.785
386.358
368.691
351.226
334.191
317.833
302.358
287.876
274.371
261.693
249.63
237.941
226.082
6.54491
6.09005
6.42078
6.34886
6.40096
6.42218
6.19734
6.43938
6.03046
6.52084
5.94124
6.82181
6.60079
7.96043
9.30852
11.8977
17.3419
24.5175
38.0646
54.74
79.2173
109.415
146.867
191.962
242.739
295.819
343.261
384.418
418.996
444.953
461.792
469.356
468.549
460.835
448.146
432.172
414.585
396.555
378.668
361.141
344.185
328.025
312.808
298.554
285.148
272.38
260.009
247.435
6.57668
6.11237
6.43675
6.36364
6.41169
6.44166
6.21494
6.4814
6.085
6.63113
6.1118
7.12159
7.09215
8.75527
10.5559
13.7573
20.0251
28.2429
43.0369
61.1175
87.08
118.748
157.572
203.806
255.485
309.267
357.68
400.216
436.68
464.935
484.267
494.24
495.505
489.363
477.675
462.158
444.565
426.248
407.972
390.009
372.506
355.697
339.764
324.77
310.638
297.165
284.102
270.787
6.60834
6.13506
6.45295
6.37885
6.42278
6.46174
6.23301
6.52407
6.14016
6.74176
6.28319
7.42077
7.58263
9.54609
11.7941
15.6003
22.6771
31.9187
47.9312
67.3826
94.7851
127.872
168.014
215.333
267.872
322.335
371.722
415.666
454.084
484.76
506.782
519.427
523.068
518.825
508.453
493.676
476.309
457.843
439.249
420.926
402.972
385.578
368.968
353.257
338.404
324.22
310.474
296.437
6.63988
6.15816
6.46938
6.3945
6.43426
6.48241
6.25157
6.56736
6.19589
6.85248
6.45499
7.71847
8.07059
10.3299
13.0181
17.4185
25.2854
35.5266
52.7227
73.5033
102.293
136.74
178.139
226.488
279.838
334.954
385.309
430.673
471.088
504.283
529.163
544.723
551.042
549.036
540.325
526.614
509.758
491.365
472.571
453.941
435.626
417.736
400.498
384.084
368.508
353.616
339.192
324.431
6.67128
6.18165
6.48605
6.41062
6.44614
6.50369
6.27064
6.6112
6.25211
6.9631
6.62683
8.01387
8.55453
11.1042
14.2234
19.2046
27.8388
39.0505
57.3889
79.4504
109.569
145.311
187.902
237.221
291.329
347.067
398.371
445.151
487.585
523.366
551.242
569.935
579.215
579.784
573.093
560.803
544.769
526.694
507.867
489.027
470.44
452.175
434.409
417.343
401.048
385.439
370.332
354.862
6.70254
6.20557
6.50298
6.42721
6.45843
6.52558
6.29022
6.65557
6.30878
7.07343
6.79838
8.30631
9.03318
11.8664
15.4062
20.9525
30.3278
42.4764
61.9107
85.1994
116.583
153.551
197.265
247.489
302.301
358.623
410.851
459.026
503.476
541.881
572.857
594.868
607.369
610.832
606.514
595.992
581.088
563.569
544.848
525.819
506.907
488.275
470.045
452.368
435.368
419.029
403.216
387.011
6.73363
6.22991
6.52017
6.4443
6.47114
6.54808
6.31035
6.70042
6.36584
7.18329
6.96928
8.59504
9.50521
12.6144
16.5625
22.6559
32.7431
45.7908
66.2697
90.7265
123.307
161.427
206.191
257.254
312.711
369.574
422.691
472.228
518.67
559.706
593.856
619.338
635.293
641.948
640.338
631.916
618.447
601.723
583.27
564.16
544.959
525.924
507.188
488.897
471.192
454.085
437.472
420.416
6.76455
6.25468
6.53763
6.4619
6.4843
6.57121
6.33103
6.74571
6.42324
7.2925
7.13922
8.87938
9.96938
13.3459
17.6888
24.3092
35.076
48.9811
70.4484
96.0094
129.713
168.907
214.644
266.475
322.516
379.873
433.839
484.69
533.079
576.728
614.09
643.164
662.775
672.89
674.295
668.284
656.523
640.802
622.742
603.616
584.141
564.689
545.451
526.554
508.114
490.174
472.684
454.738
6.79528
6.2799
6.55537
6.48003
6.49791
6.59498
6.35229
6.7914
6.48095
7.40089
7.30787
9.15874
10.4246
14.0591
18.7819
25.9074
37.319
52.0363
74.4319
101.029
135.779
175.965
222.595
275.12
331.679
389.48
444.249
496.358
546.632
592.847
633.428
666.18
689.618
703.433
708.14
704.841
695.062
680.565
663.057
644.005
624.313
604.463
584.715
565.267
546.189
527.474
509.115
490.239
6.8258
6.30557
6.57342
6.4987
6.51199
6.61938
6.37414
6.83746
6.53892
7.50833
7.47497
9.43255
10.8698
14.7521
19.8392
27.4465
39.4658
54.9475
78.2078
105.769
141.485
182.58
230.019
283.16
340.171
398.364
453.886
507.188
559.272
607.98
651.756
688.239
715.644
733.377
741.66
741.377
733.88
720.888
704.162
685.346
665.558
645.411
625.231
605.241
585.532
566.071
546.862
527.05
6.85609
6.3317
6.59177
6.51794
6.52657
6.64443
6.39663
6.88385
6.59712
7.6147
7.64025
9.70035
11.3042
15.4236
20.8585
28.9228
41.5115
57.7074
81.7664
110.218
146.818
188.735
236.898
290.576
347.97
406.499
462.723
517.149
570.954
622.062
668.978
709.21
740.693
762.543
774.681
777.74
772.872
761.723
746.072
727.712
707.981
687.644
667.098
646.578
626.225
605.998
585.899
565.079
6.88615
6.3583
6.61045
6.53775
6.54166
6.67014
6.41977
6.93054
6.65553
7.71987
7.8035
9.96173
11.7271
16.0723
21.8378
30.3338
43.452
60.3106
85.1003
114.367
151.767
194.419
243.22
297.353
355.059
413.87
470.743
526.221
581.649
635.045
685.015
728.98
764.623
790.771
807.041
813.801
811.98
803.078
788.85
771.195
751.665
731.214
710.346
689.321
668.306
647.277
626.249
604.373
6.91594
6.38537
6.62946
6.55817
6.55728
6.69651
6.44361
6.97751
6.71415
7.82377
7.96452
10.2163
12.1379
16.6973
22.7759
31.6774
45.2847
62.7534
88.2045
118.21
156.325
199.625
248.976
303.483
361.429
420.466
477.935
534.392
591.34
646.893
699.804
747.449
787.298
817.902
838.575
849.408
851.083
844.9
832.532
815.91
796.768
776.289
755.129
733.631
711.957
690.12
668.142
645.155
6.94546
6.41291
6.64882
6.5792
6.57345
6.72354
6.46816
7.02473
6.77295
7.92632
8.12315
10.4639
12.536
17.2979
23.6717
32.9522
47.0078
65.0334
91.0765
121.744
160.49
204.351
254.164
308.961
367.078
426.286
484.299
541.66
600.022
657.588
713.297
764.53
808.592
843.771
869.091
884.36
889.993
887.049
877.051
861.912
843.531
823.313
802.089
780.309
758.144
735.686
712.953
688.956
6.97467
6.44094
6.66855
6.60085
6.5902
6.75125
6.49348
7.07217
6.83194
8.02744
8.27923
10.7042
12.9212
17.8734
24.5246
34.1575
48.6204
67.15
93.7156
124.968
164.261
208.598
258.787
313.793
372.009
431.334
489.838
548.033
607.699
667.123
725.46
780.148
828.382
868.198
898.352
918.376
928.421
929.28
922.258
909.193
892.097
872.608
851.758
830.1
807.853
785.083
761.838
737.078
7.00356
6.46945
6.68866
6.62316
6.60755
6.77963
6.51959
7.11981
6.89112
8.1271
8.43266
10.937
13.293
18.4234
25.3341
35.293
50.1228
69.1037
96.1229
127.884
167.643
212.371
262.85
317.984
376.232
435.618
494.562
553.521
614.383
675.504
736.276
794.241
846.549
891.002
926.094
951.104
965.947
971.167