/*--------------------------------*- C++ -*----------------------------------*\
  =========                 |
  \\      /  F ield         | OpenFOAM: The Open Source CFD Toolbox
   \\    /   O peration     | Website:  https://openfoam.org
    \\  /    A nd           | Version:  10
     \\/     M anipulation  |
\*---------------------------------------------------------------------------*/
FoamFile
{
    format      ascii;
    class       surfaceScalarField;
    location    "5";
    object      phi;
}
// * * * * * * * * * * * * * * * * * * * * * * * * * * * * * * * * * * * * * //

dimensions      [0 3 -1 0 0 0 0];

internalField   nonuniform List<scalar> 
75600
(
2.16019
-1217.95
1218.4
1.79348
-1008.21
1008.58
1.49013
-834.817
835.121
1.23929
-691.201
691.452
1.0316
-572.315
572.522
0.859933
-473.91
474.081
0.717666
-392.51
392.652
0.600013
-325.075
325.193
0.502513
-269.465
269.563
0.42174
-223.246
223.327
0.354748
-185.316
185.383
0.299224
-153.764
153.819
0.253055
-127.914
127.96
0.214653
-106.506
106.544
0.182676
-88.9727
89.0046
0.155874
-74.5939
74.6207
0.133427
-62.8737
62.8962
0.114419
-53.4156
53.4345
0.0982435
-45.8579
45.874
0.0842827
-39.9311
39.9451
0.0720738
-35.4543
35.4665
0.0611628
-32.2353
32.2462
0.0511738
-30.192
30.202
0.0418056
-29.2574
29.2667
0.032816
-29.3043
29.3133
0.0256912
-23.5439
23.551
0.0200722
-18.9192
18.9248
0.0156178
-15.1646
15.1691
0.0121198
-12.1461
12.1496
0.00934697
-9.74536
9.74813
0.00715791
-7.80232
7.80451
0.00545326
-6.24837
6.25007
0.00419512
-5.00053
5.00179
0.00318915
-3.99532
3.99633
0.00239438
-3.19737
3.19816
0.00181768
-2.5547
2.55527
0.00136315
-2.05867
2.05912
0.000789457
-1.65169
1.65227
0.000816182
-1.33226
1.33223
0.000608475
-1.06752
1.06773
0.00014597
-0.864507
0.864969
0.000396761
-0.707591
0.707337
0.000167389
-0.579778
0.580019
-4.19939e-06
-0.485925
0.486092
6.49431e-06
-0.414617
0.414625
1.36765e-05
-0.363916
0.363917
-0.000178608
-0.331671
0.331887
-0.317195
0.317236
-0.000200697
2.18772
-1217.34
1.81665
-1007.82
1.50969
-834.405
1.25543
-690.853
1.04503
-572.049
0.870982
-473.715
0.726666
-392.344
0.607339
-325.02
0.50843
-269.324
0.426429
-223.278
0.358506
-185.209
0.302151
-153.781
0.255345
-127.841
0.216422
-106.485
0.184026
-88.9271
0.156919
-74.5514
0.134237
-62.8426
0.115087
-53.3774
0.0988385
-45.828
0.0848853
-39.9173
0.072765
-35.4402
0.0620174
-32.2392
0.0522701
-30.2031
0.0432275
-29.2655
0.0346676
-29.3059
0.0278553
-23.5321
0.0224869
-18.8912
0.0182468
-15.1596
0.0149396
-12.1562
0.0123614
-9.73951
0.0103409
-7.8005
0.00878381
-6.24486
0.00767128
-4.99815
0.00676339
-4.00225
0.00607551
-3.20393
0.00555054
-2.56586
0.00529624
-2.05608
0.00476904
-1.65032
0.00503874
-1.32682
0.00475749
-1.07152
0.00418249
-0.867862
0.00477916
-0.706038
0.00434623
-0.581732
0.00439838
-0.485283
0.00428544
-0.414597
0.00429413
-0.363674
0.004133
-0.331249
-0.316852
0.00402498
2.21684
-1216.89
1.84086
-1007.44
1.52943
-834.093
1.27163
-690.596
1.05797
-571.835
0.881176
-473.538
0.734607
-392.198
0.613272
-324.899
0.512712
-269.224
0.429364
-223.195
0.360279
-185.14
0.302933
-153.724
0.255376
-127.794
0.215787
-106.445
0.182892
-88.8942
0.155414
-74.5239
0.132459
-62.8197
0.113167
-53.3582
0.0968811
-45.8117
0.0829873
-39.9034
0.0710027
-35.4283
0.0604764
-32.2287
0.051042
-30.1937
0.0424153
-29.2569
0.0343703
-29.2978
0.027927
-23.5257
0.0229008
-18.8861
0.0189518
-15.1557
0.0158829
-12.1531
0.013545
-9.73718
0.0117449
-7.79872
0.0103426
-6.24346
0.00938241
-4.99718
0.00857827
-4.00144
0.00794962
-3.20322
0.0075114
-2.5654
0.00748842
-2.05596
0.00710553
-1.65002
0.00736697
-1.327
0.00703847
-1.07116
0.00661003
-0.867398
0.00703499
-0.706151
0.00673973
-0.58154
0.00685785
-0.485244
0.00656066
-0.414275
0.0064513
-0.363532
0.0063115
-0.331098
-0.316571
0.00604623
2.24816
-1216.43
1.8668
-1007.06
1.55069
-833.777
1.28886
-690.334
1.07176
-571.618
0.892037
-473.358
0.742986
-392.049
0.619564
-324.776
0.517247
-269.121
0.432437
-223.11
0.362135
-185.07
0.30379
-153.665
0.255413
-127.745
0.215166
-106.405
0.181751
-88.8608
0.153874
-74.4961
0.130631
-62.7965
0.111149
-53.3387
0.0947681
-45.7954
0.0808681
-39.8895
0.0689624
-35.4164
0.0586016
-32.2183
0.0494159
-30.1845
0.0411263
-29.2486
0.0335151
-29.2902
0.0273755
-23.5196
0.0225965
-18.8814
0.0188544
-15.1519
0.015979
-12.1502
0.0138377
-9.73503
0.012217
-7.79711
0.0109623
-6.24222
0.0101605
-4.99637
0.00945055
-4.0007
0.00891967
-3.20256
0.00859882
-2.56507
0.00870739
-2.05595
0.008311
-1.64976
0.00858564
-1.32714
0.00825665
-1.07077
0.00782938
-0.866966
0.00817435
-0.706115
0.00782421
-0.581283
0.0078187
-0.485104
0.00748622
-0.413893
0.0072621
-0.363258
0.00702301
-0.330817
-0.316135
0.00664004
2.28162
-1215.96
1.89448
-1006.67
1.57342
-833.456
1.30738
-690.068
1.0867
-571.398
0.903952
-473.175
0.752358
-391.897
0.626798
-324.65
0.522696
-269.017
0.436398
-223.024
0.36486
-184.998
0.305496
-153.606
0.25628
-127.696
0.215353
-106.364
0.181391
-88.8269
0.153082
-74.4678
0.129512
-62.773
0.109791
-53.319
0.0932553
-45.7788
0.0792758
-39.8756
0.0673594
-35.4045
0.057055
-32.208
0.0479858
-30.1754
0.039873
-29.2405
0.0324998
-29.2829
0.0265136
-23.5136
0.0218644
-18.8768
0.0182379
-15.1483
0.0154817
-12.1475
0.0134708
-9.73302
0.0119758
-7.79564
0.0108327
-6.24108
0.0101494
-4.99567
0.00951952
-4.00003
0.00908265
-3.20195
0.00881905
-2.56479
0.00895743
-2.05596
0.00857616
-1.64955
0.00877325
-1.32717
0.00847036
-1.07039
0.00799569
-0.866547
0.00814212
-0.705911
0.00776719
-0.580934
0.00760194
-0.484831
0.00723411
-0.413456
0.00690564
-0.362874
0.0065755
-0.330444
-0.31563
0.00612684
2.3175
-1215.49
1.92429
-1006.28
1.59808
-833.13
1.32766
-689.797
1.1033
-571.173
0.917447
-472.989
0.763255
-391.743
0.635519
-324.522
0.5296
-268.911
0.441791
-222.936
0.368996
-184.926
0.308596
-153.546
0.258524
-127.646
0.216899
-106.323
0.18237
-88.7924
0.153608
-74.4391
0.129684
-62.7491
0.109693
-53.2991
0.0929632
-45.7621
0.0788575
-39.8615
0.0668746
-35.3925
0.0565581
-32.1977
0.0475223
-30.1664
0.0394845
-29.2325
0.0322249
-29.2757
0.0262955
-23.5077
0.0217009
-18.8722
0.0181336
-15.1448
0.015455
-12.1449
0.0135412
-9.7311
0.0121466
-7.79427
0.0110972
-6.24004
0.0105069
-4.99505
0.00994386
-3.99942
0.0095925
-3.2014
0.00936289
-2.56454
0.00948462
-2.05592
0.00912614
-1.64938
0.00918716
-1.32708
0.00888853
-1.06999
0.00838791
-0.866123
0.00830262
-0.705607
0.00789843
-0.580521
0.00759655
-0.484436
0.00720026
-0.412972
0.00680049
-0.362404
0.00641412
-0.330006
-0.315099
0.00594179
2.35584
-1215.01
1.95618
-1005.88
1.6245
-832.798
1.34947
-689.522
1.12123
-570.945
0.932113
-472.8
0.775195
-391.586
0.645181
-324.392
0.537363
-268.803
0.447977
-222.847
0.37387
-184.851
0.312387
-153.484
0.26142
-127.595
0.219063
-106.28
0.183937
-88.7573
0.154693
-74.4099
0.130388
-62.7248
0.110099
-53.2788
0.093148
-45.7452
0.078886
-39.8473
0.0668017
-35.3804
0.0564331
-32.1874
0.047382
-30.1574
0.0393591
-29.2245
0.0321378
-29.2685
0.0262021
-23.5019
0.0216126
-18.8677
0.0180679
-15.1413
0.0154418
-12.1423
0.0136072
-9.72926
0.0123009
-7.793
0.0113376
-6.23907
0.0108276
-4.99451
0.010324
-3.99887
0.0100509
-3.20091
0.00983802
-2.56433
0.00991702
-2.05583
0.00957246
-1.64922
0.00947707
-1.32688
0.00913841
-1.06955
0.00862264
-0.86563
0.00833742
-0.705185
0.00788556
-0.580055
0.00747405
-0.48397
0.0070405
-0.412459
0.00660296
-0.3619
0.00618993
-0.329533
-0.314545
0.00570488
2.39674
-1214.52
1.99022
-1005.47
1.65276
-832.46
1.37284
-689.242
1.14051
-570.713
0.947961
-472.608
0.788178
-391.426
0.655774
-324.26
0.545967
-268.694
0.454928
-222.756
0.379447
-184.776
0.316831
-153.422
0.264925
-127.543
0.221799
-106.237
0.186044
-88.7216
0.156288
-74.3801
0.131576
-62.7001
0.110963
-53.2582
0.0937648
-45.728
0.0793189
-39.8328
0.0671027
-35.3682
0.0566471
-32.1769
0.0475376
-30.1483
0.0394757
-29.2164
0.0322245
-29.2613
0.0262231
-23.4959
0.0215921
-18.8631
0.0180353
-15.1378
0.015439
-12.1397
0.0136691
-9.72748
0.0124417
-7.7918
0.0115593
-6.23818
0.0111198
-4.99404
0.0106697
-3.99837
0.0104659
-3.20048
0.0102552
-2.56412
0.0102725
-2.05567
0.00992397
-1.64903
0.00968247
-1.32657
0.0092593
-1.06905
0.00872337
-0.865086
0.00828969
-0.704646
0.00779434
-0.579505
0.00731108
-0.483443
0.00682309
-0.411909
0.00636623
-0.361375
0.00596027
-0.329053
-0.313983
0.00547046
2.44033
-1214.02
2.02653
-1005.06
1.68292
-832.117
1.39785
-688.957
1.16121
-570.476
0.965059
-472.411
0.802274
-391.263
0.667366
-324.125
0.555479
-268.582
0.462712
-222.663
0.385797
-184.699
0.321996
-153.358
0.269109
-127.49
0.225178
-106.193
0.18876
-88.6852
0.158464
-74.3499
0.133316
-62.675
0.112351
-53.2373
0.0948771
-45.7106
0.0802165
-39.8182
0.0678334
-35.3559
0.0572489
-32.1664
0.0480306
-30.1391
0.0398661
-29.2083
0.0325034
-29.2539
0.0263659
-23.4898
0.0216378
-18.8584
0.0180276
-15.1342
0.0154334
-12.1372
0.0137097
-9.72573
0.012549
-7.79068
0.01174
-6.23736
0.0113595
-4.99363
0.0109556
-3.99792
0.0108076
-3.20011
0.010586
-2.56391
0.0105263
-2.05543
0.0101507
-1.64877
0.00978824
-1.32614
0.00926435
-1.06848
0.00869286
-0.864507
0.00815406
-0.704049
0.00762089
-0.578896
0.00710972
-0.482879
0.00658478
-0.411342
0.00610796
-0.360842
0.00571902
-0.328586
-0.313441
0.0052337
2.48671
-1213.51
2.06519
-1004.64
1.71511
-831.767
1.42461
-688.667
1.18343
-570.235
0.983504
-472.212
0.817577
-391.097
0.680058
-323.987
0.566
-268.468
0.471436
-222.568
0.393028
-184.621
0.327995
-153.293
0.274085
-127.436
0.229313
-106.149
0.192201
-88.6481
0.161334
-74.319
0.13572
-62.6494
0.114375
-53.216
0.096593
-45.6928
0.0816823
-39.8033
0.0690918
-35.3433
0.0583303
-32.1556
0.048943
-30.1297
0.0406002
-29.2
0.0330294
-29.2464
0.0266731
-23.4835
0.0217822
-18.8535
0.0180695
-15.1305
0.0154438
-12.1346
0.0137435
-9.72401
0.0126339
-7.7896
0.0118885
-6.23658
0.0115533
-4.99326
0.0111878
-3.9975
0.0110775
-3.19979
0.0108352
-2.56368
0.0106884
-2.05512
0.0102658
-1.64842
0.00980249
-1.32562
0.00919395
-1.06782
0.00857755
-0.863878
0.00796817
-0.703414
0.00739696
-0.578249
0.00687382
-0.482294
0.00634577
-0.410779
0.00585538
-0.360293
0.00546485
-0.328094
-0.312874
0.00496217
2.536
-1212.99
2.10632
-1004.21
1.7494
-831.41
1.45319
-688.371
1.20726
-569.989
1.00339
-472.008
0.834182
-390.928
0.693943
-323.847
0.577633
-268.351
0.481202
-222.472
0.401246
-184.541
0.334934
-153.227
0.279962
-127.382
0.234314
-106.103
0.196476
-88.6103
0.165007
-74.2876
0.138898
-62.6233
0.117139
-53.1943
0.0990148
-45.6747
0.0838146
-39.7882
0.0709699
-35.3304
0.0599755
-32.1447
0.0503493
-30.1202
0.0417394
-29.1914
0.033848
-29.2386
0.0271762
-23.4769
0.0220462
-18.8485
0.0181732
-15.1267
0.0154761
-12.1319
0.0137715
-9.72227
0.0126938
-7.78856
0.0119998
-6.23585
0.0116948
-4.99291
0.011359
-3.99711
0.0112657
-3.19951
0.0109968
-2.56342
0.0107569
-2.05475
0.0102787
-1.64797
0.00972586
-1.32501
0.0090585
-1.06711
0.00840359
-0.863206
0.00775029
-0.702732
0.00714989
-0.577574
0.00661677
-0.481703
0.00610663
-0.410244
0.00562257
-0.359753
0.00523402
-0.327591
-0.312317
0.00473984
2.58834
-1212.47
2.15002
-1003.77
1.7859
-831.046
1.48369
-688.068
1.2328
-569.738
1.0248
-471.8
0.852189
-390.756
0.709128
-323.704
0.590483
-268.232
0.492122
-222.374
0.410565
-184.459
0.342931
-153.159
0.28686
-127.325
0.240302
-106.056
0.201707
-88.5717
0.169605
-74.2555
0.14297
-62.5967
0.120762
-53.1721
0.102257
-45.6562
0.0867231
-39.7727
0.073571
-35.3173
0.0622789
-32.1334
0.0523327
-30.1102
0.0433533
-29.1825
0.0350098
-29.2303
0.0279112
-23.4699
0.0224533
-18.8431
0.0183529
-15.1226
0.0155374
-12.1291
0.0137956
-9.72049
0.0127265
-7.78753
0.0120691
-6.23513
0.0117778
-4.99259
0.011463
-3.99673
0.011365
-3.19924
0.0110663
-2.56313
0.0107319
-2.0543
0.0102
-1.64743
0.00957036
-1.32434
0.00886499
-1.06638
0.00818624
-0.86251
0.00750727
-0.702008
0.00688938
-0.576877
0.0063512
-0.4811
0.0058635
-0.409718
0.00538931
-0.359218
0.00499052
-0.327074
-0.311748
0.00448107
2.64385
-1211.93
2.19642
-1003.32
1.82472
-830.674
1.51623
-687.76
1.26015
-569.482
1.04786
-471.587
0.871709
-390.579
0.725729
-323.558
0.604672
-268.111
0.504321
-222.273
0.421115
-184.376
0.352119
-153.09
0.294913
-127.268
0.247414
-106.009
0.208031
-88.5324
0.175265
-74.2228
0.148069
-62.5695
0.125376
-53.1495
0.106448
-45.6373
0.0905301
-39.7568
0.0770102
-35.3038
0.0653463
-32.1217
0.0549866
-30.0999
0.0455188
-29.173
0.0365721
-29.2214
0.0289183
-23.4624
0.0230305
-18.8372
0.0186249
-15.1183
0.015636
-12.1262
0.0138182
-9.71862
0.0127302
-7.78647
0.012092
-6.23442
0.0117969
-4.99226
0.0114939
-3.99637
0.0113719
-3.19898
0.0110404
-2.5628
0.0106168
-2.05378
0.0100389
-1.64682
0.00935262
-1.32361
0.00862296
-1.06565
0.00793075
-0.861804
0.0072426
-0.701266
0.00662197
-0.576186
0.00609132
-0.480501
0.00563111
-0.40919
0.00517207
-0.358682
0.00476102
-0.326542
-0.311171
0.00424522
2.70267
-1211.38
2.24564
-1002.87
1.86598
-830.294
1.55092
-687.445
1.28943
-569.22
1.07268
-471.371
0.89287
-390.399
0.743874
-323.409
0.620338
-267.988
0.517941
-222.171
0.433042
-184.291
0.362648
-153.02
0.304275
-127.21
0.255805
-105.96
0.215605
-88.4922
0.182143
-74.1894
0.154353
-62.5418
0.131135
-53.1263
0.111737
-45.6179
0.0953791
-39.7405
0.0814225
-35.2899
0.0693016
-32.1096
0.0584214
-30.0891
0.0483292
-29.163
0.0386055
-29.2117
0.0302499
-23.4541
0.0238154
-18.8309
0.0190154
-15.1135
0.0157892
-12.123
0.0138504
-9.71661
0.0127112
-7.78537
0.0120719
-6.23368
0.011755
-4.99191
0.011454
-3.99602
0.0112935
-3.19869
0.0109253
-2.56245
0.0104259
-2.05318
0.00981262
-1.64618
0.0090896
-1.32288
0.00834422
-1.06491
0.007645
-0.861087
0.00696492
-0.700524
0.00635523
-0.575514
0.00584253
-0.479917
0.00541347
-0.40867
0.00497721
-0.358159
0.00457024
-0.32602
-0.310628
0.00408777
2.76495
-1210.82
2.29781
-1002.4
1.9098
-829.906
1.58787
-687.123
1.32076
-568.953
1.0994
-471.149
0.915811
-390.216
0.763719
-323.257
0.637638
-267.862
0.533149
-222.066
0.44652
-184.204
0.374696
-152.948
0.315129
-127.15
0.265661
-105.911
0.224615
-88.4512
0.190426
-74.1553
0.162006
-62.5133
0.138219
-53.1026
0.118301
-45.598
0.10144
-39.7236
0.0869689
-35.2754
0.0742946
-32.097
0.0627714
-30.0776
0.0518991
-29.1522
0.0412005
-29.2011
0.0319767
-23.445
0.0248625
-18.8238
0.0195663
-15.1083
0.0160295
-12.1195
0.0139179
-9.71442
0.0126902
-7.78417
0.0120268
-6.2329
0.0116698
-4.99154
0.0113604
-3.99568
0.0111533
-3.19836
0.010744
-2.56206
0.0101872
-2.05255
0.00955107
-1.64554
0.00880338
-1.32217
0.00805328
-1.06419
0.00735921
-0.860366
0.0067046
-0.699804
0.00611646
-0.574874
0.00562318
-0.479348
0.00521531
-0.408151
0.00478871
-0.35765
0.00437689
-0.325515
-0.310102
0.00389945
2.83083
-1210.24
2.35305
-1001.92
1.9563
-829.509
1.62721
-686.794
1.35425
-568.68
1.12812
-470.923
0.940647
-390.028
0.785376
-323.102
0.656694
-267.733
0.550071
-221.96
0.461679
-184.116
0.3884
-152.875
0.327613
-127.09
0.277123
-105.861
0.235204
-88.4093
0.200255
-74.1204
0.171167
-62.4843
0.146765
-53.0783
0.126268
-45.5775
0.108834
-39.7062
0.093761
-35.2604
0.0804234
-32.0837
0.0681178
-30.0654
0.0562883
-29.1404
0.0443893
-29.1893
0.0341083
-23.4348
0.0261634
-18.816
0.0202549
-15.1025
0.016323
-12.1157
0.0139786
-9.71198
0.0126195
-7.78285
0.0119056
-6.23205
0.0114899
-4.99111
0.011161
-3.99533
0.0109034
-3.198
0.0104518
-2.56164
0.00985335
-2.0519
0.00920858
-1.64492
0.00844596
-1.32148
0.00770709
-1.06348
0.00702874
-0.85964
0.0064102
-0.699125
0.00586344
-0.574287
0.00540743
-0.478808
0.00502421
-0.407637
0.00460863
-0.357143
0.004197
-0.325004
-0.309566
0.00373944
2.90047
-1209.65
2.41151
-1001.43
2.0056
-829.103
1.66905
-686.457
1.39004
-568.401
1.159
-470.692
0.967538
-389.837
0.809023
-322.943
0.677692
-267.602
0.568903
-221.851
0.478724
-184.026
0.403968
-152.8
0.341943
-127.028
0.290408
-105.809
0.247591
-88.3665
0.211851
-74.0847
0.182055
-62.4545
0.156989
-53.0533
0.135851
-45.5563
0.117765
-39.6882
0.10199
-35.2446
0.0878654
-32.0696
0.0746198
-30.0522
0.0616326
-29.1274
0.048279
-29.176
0.0367285
-23.4234
0.0277829
-18.8071
0.021131
-15.0959
0.0167082
-12.1113
0.0140632
-9.70922
0.0125241
-7.78135
0.0117302
-6.2311
0.0112364
-4.99063
0.0108781
-3.99496
0.0105682
-3.1976
0.0100793
-2.56118
0.00945006
-2.05125
0.00881234
-1.64433
0.00804929
-1.32081
0.00733827
-1.06277
0.0066788
-0.858919
0.00609062
-0.698486
0.00559326
-0.573747
0.00518997
-0.478308
0.00483966
-0.407158
0.00444219
-0.356677
0.00404632
-0.324535
-0.309086
0.00363195
2.97404
-1209.05
2.47333
-1000.93
2.05786
-828.688
1.71356
-686.113
1.42829
-568.116
1.1922
-470.456
0.996653
-389.641
0.834833
-322.781
0.700817
-267.468
0.589838
-221.74
0.497856
-183.934
0.421611
-152.724
0.358332
-126.964
0.305736
-105.756
0.261997
-88.3227
0.225434
-74.0481
0.194889
-62.4239
0.169103
-53.0276
0.147256
-45.5345
0.128431
-39.6694
0.111844
-35.2281
0.0967917
-32.0545
0.0824281
-30.0379
0.0680581
-29.1131
0.0529638
-29.161
0.0399061
-23.4104
0.0297693
-18.797
0.0222267
-15.0884
0.0172045
-12.1063
0.0141821
-9.70606
0.0124081
-7.77963
0.0115019
-6.23001
0.0109093
-4.99008
0.0105136
-3.99455
0.0101496
-3.19716
0.00963512
-2.56068
0.00898495
-2.0506
0.00836855
-1.64378
0.00761981
-1.32013
0.00694855
-1.06208
0.00632221
-0.858248
0.00577216
-0.697911
0.00531943
-0.573245
0.00494751
-0.477821
0.00459944
-0.406682
0.00418972
-0.356209
0.00378809
-0.324061
-0.308593
0.00338297
3.05172
-1208.43
2.53868
-1000.42
2.11323
-828.262
1.76087
-685.761
1.46914
-567.824
1.22787
-470.215
1.02817
-389.442
0.862994
-322.616
0.726268
-267.331
0.613087
-221.627
0.519293
-183.84
0.441554
-152.646
0.377013
-126.9
0.323341
-105.703
0.278659
-88.2781
0.241241
-74.0108
0.209905
-62.3926
0.18334
-53.0011
0.160709
-45.5119
0.141047
-39.6498
0.123523
-35.2106
0.107387
-32.0384
0.0917067
-30.0223
0.0757011
-29.0972
0.0585464
-29.144
0.0437164
-23.3957
0.032176
-18.7856
0.0235782
-15.0799
0.0178346
-12.1006
0.0143483
-9.70242
0.0122779
-7.77764
0.011224
-6.22875
0.0105096
-4.98943
0.0100717
-3.99407
0.00965237
-3.19667
0.00912764
-2.56015
0.00846933
-2.04995
0.00788432
-1.64326
0.0071603
-1.31946
0.00652665
-1.06143
0.00594703
-0.857656
0.00546842
-0.697429
0.00509265
-0.572809
0.00476744
-0.477378
0.0044298
-0.406238
0.00402529
-0.355771
0.00363558
-0.323611
-0.308138
0.00326754
3.13367
-1207.8
2.60772
-999.893
2.17185
-827.826
1.81115
-685.4
1.51277
-567.526
1.26619
-469.968
1.06226
-389.238
0.893706
-322.448
0.754258
-267.191
0.638872
-221.511
0.543271
-183.744
0.464039
-152.566
0.398234
-126.834
0.343477
-105.648
0.297833
-88.2324
0.25953
-73.9725
0.227356
-62.3604
0.19995
-52.9737
0.17645
-45.4883
0.155844
-39.6292
0.137246
-35.192
0.119852
-32.0211
0.102631
-30.0052
0.0847083
-29.0793
0.0651376
-29.1245
0.0482417
-23.379
0.035062
-18.7725
0.025226
-15.0701
0.0186245
-12.0941
0.0145774
-9.69821
0.0121421
-7.77529
0.0109017
-6.22729
0.0100406
-4.98865
0.00955819
-3.9935
0.00908534
-3.19609
0.00856422
-2.55963
0.00791363
-2.04932
0.00736537
-1.64275
0.00667844
-1.3188
0.00607626
-1.06083
0.00552977
-0.857135
0.00510862
-0.697008
0.00479546
-0.572414
0.00450366
-0.476969
0.00417213
-0.405825
0.00378337
-0.35536
0.00342333
-0.323182
-0.307709
0.00309953
3.22011
-1207.15
2.68062
-999.353
2.23389
-827.38
1.86455
-685.031
1.55934
-567.22
1.30735
-469.716
1.09914
-389.029
0.927181
-322.276
0.785012
-267.049
0.667434
-221.394
0.570037
-183.647
0.489325
-152.486
0.42226
-126.767
0.366415
-105.592
0.319792
-88.1858
0.280572
-73.9333
0.247513
-62.3273
0.219198
-52.9455
0.19474
-45.4639
0.17307
-39.6076
0.153244
-35.1722
0.134397
-32.0022
0.11539
-29.9863
0.095237
-29.0592
0.0728564
-29.1022
0.0535708
-23.3599
0.0384918
-18.7575
0.0272152
-15.0589
0.0196041
-12.0865
0.0148882
-9.69331
0.0120122
-7.77253
0.0105428
-6.22556
0.0095087
-4.98769
0.00898016
-3.99283
0.00846065
-3.19542
0.00795278
-2.55912
0.00732753
-2.04871
0.00681375
-1.64225
0.00617244
-1.31819
0.00561563
-1.06033
0.00512021
-0.856714
0.00475658
-0.696646
0.00448174
-0.572047
0.00419435
-0.476586
0.00385144
-0.405437
0.00346597
-0.354967
0.00313302
-0.322777
-0.307302
0.00283713
3.31122
-1206.48
2.75756
-998.8
2.29953
-826.921
1.92127
-684.652
1.60905
-566.908
1.35155
-469.459
1.13902
-388.817
0.963646
-322.1
0.81877
-266.904
0.699023
-221.274
0.599858
-183.548
0.517686
-152.404
0.449374
-126.699
0.392441
-105.535
0.344826
-88.1382
0.304657
-73.8932
0.270665
-62.2933
0.241366
-52.9163
0.21585
-45.4383
0.192986
-39.5848
0.171762
-35.151
0.151248
-31.9818
0.13018
-29.9654
0.107453
-29.0366
0.0818293
-29.0767
0.0597992
-23.338
0.0425357
-18.7403
0.029596
-15.046
0.0208072
-12.0777
0.0153029
-9.68762
0.0119027
-7.76924
0.0101579
-6.22352
0.00892403
-4.98649
0.00834653
-3.99203
0.00779165
-3.19467
0.0073019
-2.55862
0.00672045
-2.04813
0.00623228
-1.64176
0.00562243
-1.31763
0.00510952
-1.05993
0.00469299
-0.856397
0.00442037
-0.696356
0.00420298
-0.571734
0.00393452
-0.476252
0.00360537
-0.405096
0.00325986
-0.354623
0.0029861
-0.322432
-0.306986
0.00276457
3.40722
-1205.8
2.83873
-998.231
2.36895
-826.452
1.98146
-684.265
1.66206
-566.589
1.39898
-469.196
1.1821
-388.6
1.00334
-321.921
0.855783
-266.757
0.733906
-221.152
0.633008
-183.447
0.549409
-152.32
0.479869
-126.629
0.421855
-105.477
0.373237
-88.0896
0.332089
-73.8521
0.29711
-62.2583
0.266749
-52.8861
0.240067
-45.4116
0.215866
-39.5606
0.193058
-35.1283
0.170639
-31.9594
0.147211
-29.9421
0.121531
-29.011
0.0921898
-29.0475
0.0670285
-23.313
0.0472692
-18.7206
0.0324233
-15.0313
0.0222723
-12.0676
0.0158475
-9.681
0.0118317
-7.76534
0.00976029
-6.22109
0.0083
-4.98501
0.00766807
-3.9911
0.0070908
-3.19384
0.00661813
-2.55812
0.00609446
-2.04759
0.00562943
-1.64128
0.00504273
-1.31713
0.00455966
-1.0596
0.00420028
-0.85613
0.00398255
-0.696093
0.00378197
-0.571441
0.00350545
-0.475938
0.00318118
-0.404769
0.00287445
-0.354292
0.00265073
-0.322101
-0.306688
0.0024754
3.50832
-1205.09
2.92433
-997.647
2.44234
-825.97
2.04534
-683.868
1.7186
-566.262
1.44987
-468.927
1.22863
-388.379
1.04649
-321.739
0.896311
-266.606
0.772357
-221.028
0.669777
-183.344
0.584793
-152.235
0.514052
-126.559
0.454969
-105.418
0.405341
-88.04
0.363183
-73.81
0.327164
-62.2222
0.295654
-52.8547
0.267689
-45.3836
0.241994
-39.535
0.217397
-35.1037
0.192816
-31.9348
0.166697
-29.9161
0.137652
-28.9821
0.104078
-29.0141
0.0753659
-23.2845
0.0527737
-18.6981
0.0357572
-15.0144
0.0240421
-12.056
0.016552
-9.6733
0.0118215
-7.76072
0.00936688
-6.21822
0.00765241
-4.98319
0.00695653
-3.99003
0.00636815
-3.19297
0.00590543
-2.5576
0.00544029
-2.04709
0.00499898
-1.64084
0.00445966
-1.31674
0.0040481
-1.05937
0.00377198
-0.855925
0.00360385
-0.695868
0.00340529
-0.571195
0.00311899
-0.475684
0.00280872
-0.40451
0.00254536
-0.354036
0.00237423
-0.321861
-0.306489
0.00223656
3.61477
-1204.36
3.01456
-997.047
2.51989
-825.475
2.1131
-683.461
1.77887
-565.928
1.50442
-468.652
1.27884
-388.153
1.09337
-321.554
0.940624
-266.454
0.814661
-220.902
0.71046
-183.24
0.624143
-152.149
0.552238
-126.487
0.492104
-105.358
0.44146
-87.9893
0.398262
-73.7669
0.361145
-62.1851
0.328396
-52.822
0.299021
-45.3542
0.271661
-39.5077
0.245054
-35.0771
0.218027
-31.9078
0.18886
-29.8871
0.156002
-28.9493
0.117637
-28.9759
0.0849236
-23.252
0.0591352
-18.6724
0.0396626
-14.995
0.0261643
-12.0425
0.0174509
-9.66438
0.0118977
-7.75523
0.0089969
-6.21481
0.00699803
-4.98098
0.00622204
-3.98879
0.00562812
-3.19207
0.00516684
-2.55706
0.00475354
-2.0466
0.00432802
-1.64044
0.00384251
-1.31643
0.00352161
-1.05921
0.00333704
-0.855761
0.00320892
-0.695661
0.00300581
-0.570958
0.00272078
-0.475437
0.00244898
-0.404262
0.00225741
-0.353805
0.00216587
-0.321667
-0.306354
0.00210208
3.72681
-1203.62
3.10966
-996.43
2.60182
-824.967
2.18494
-683.044
1.84308
-565.586
1.56287
-468.372
1.33297
-387.923
1.14424
-321.365
0.988993
-266.298
0.861102
-220.774
0.755356
-183.134
0.667769
-152.061
0.594745
-126.414
0.533582
-105.297
0.481922
-87.9377
0.437652
-73.7227
0.399376
-62.1467
0.36529
-52.7881
0.334369
-45.3232
0.305159
-39.4785
0.276302
-35.0483
0.246524
-31.8781
0.213923
-29.8547
0.176769
-28.9123
0.133013
-28.9324
0.0958171
-23.215
0.0664437
-18.6431
0.0442087
-14.9729
0.0286909
-12.027
0.018583
-9.65405
0.0120903
-7.74876
0.00867236
-6.21077
0.006353
-4.97838
0.00547177
-3.98737
0.00486808
-3.19115
0.00440107
-2.55649
0.00404327
-2.04615
0.00365147
-1.64007
0.00323915
-1.3162
0.00300926
-1.05911
0.00288718
-0.85564
0.00275857
-0.695496
0.00252581
-0.570769
0.00223526
-0.475238
0.00199907
-0.404062
0.00186812
-0.35363
0.00183397
-0.32154
-0.306285
0.00181087
3.8447
-1202.85
3.20986
-995.795
2.68836
-824.445
2.26111
-682.617
1.91149
-565.236
1.62551
-468.086
1.39132
-387.689
1.19939
-321.173
1.04176
-266.141
0.912036
-220.644
0.804834
-183.027
0.716051
-151.972
0.64196
-126.34
0.579799
-105.234
0.527124
-87.885
0.481752
-73.6774
0.442256
-62.1071
0.406728
-52.7527
0.374114
-45.2905
0.342858
-39.4473
0.31149
-35.017
0.278634
-31.8453
0.242183
-29.8185
0.200219
-28.8704
0.150435
-28.8828
0.108245
-23.1731
0.0748746
-18.6098
0.0495516
-14.9477
0.0317619
-12.0093
0.0200753
-9.64211
0.012517
-7.74117
0.00850144
-6.20601
0.00581696
-4.97533
0.00479518
-3.98575
0.00416723
-3.19018
0.00368474
-2.55587
0.00338458
-2.04571
0.00306076
-1.63977
0.00276897
-1.31607
0.00266038
-1.05907
0.00260833
-0.855573
0.00248418
-0.695394
0.00224027
-0.570655
0.00197204
-0.475124
0.00179478
-0.403961
0.00173259
-0.353568
0.00174668
-0.32153
-0.306327
0.00174419
3.96871
-1202.06
3.31539
-995.142
2.77972
-823.91
2.3418
-682.179
1.98429
-564.879
1.6925
-467.794
1.45407
-387.451
1.25905
-320.978
1.09912
-265.981
0.967682
-220.513
0.85912
-182.919
0.769225
-151.882
0.694125
-126.265
0.630998
-105.171
0.577311
-87.8313
0.530806
-73.631
0.490022
-62.0663
0.452941
-52.7158
0.418479
-45.2559
0.384963
-39.4138
0.350808
-34.9829
0.314523
-31.809
0.27378
-29.778
0.226457
-28.8232
0.16997
-28.8265
0.122246
-23.1256
0.084445
-18.5721
0.0556892
-14.9191
0.035359
-11.989
0.0218951
-9.62836
0.0131337
-7.73229
0.00842723
-6.20042
0.00532133
-4.97181
0.00411438
-3.98389
0.0034406
-3.18912
0.00292661
-2.55515
0.00264901
-2.04525
0.00236354
-1.63949
0.00217042
-1.31601
0.00215056
-1.05909
0.00212939
-0.855554
0.0019911
-0.695334
0.00174822
-0.570577
0.00153094
-0.475046
0.00144403
-0.403907
0.00148304
-0.35357
0.00158526
-0.321595
-0.306437
0.0016518
4.0991
-1201.24
3.42646
-994.47
2.87608
-823.359
2.4272
-681.73
2.06165
-564.513
1.76404
-467.497
1.52143
-387.208
1.3234
-320.78
1.1613
-265.819
1.02825
-220.38
0.91844
-182.809
0.827521
-151.791
0.751474
-126.189
0.687419
-105.107
0.632723
-87.7765
0.585051
-73.5834
0.542909
-62.024
0.504157
-52.6772
0.467679
-45.2194
0.431678
-39.3779
0.394441
-34.9458
0.354353
-31.769
0.308849
-29.7328
0.255589
-28.7701
0.191689
-28.7628
0.137868
-23.0721
0.0951817
-18.5295
0.0626304
-14.8868
0.0394761
-11.9658
0.024022
-9.61258
0.0139082
-7.72196
0.008402
-6.1939
0.00480441
-4.96774
0.00335893
-3.98174
0.00260798
-3.18789
0.00205384
-2.55427
0.00180565
-2.04474
0.00158344
-1.63923
0.00149006
-1.31601
0.00152923
-1.05918
0.00149839
-0.855622
0.00132137
-0.695378
0.00107771
-0.570615
0.000915157
-0.475092
0.000909529
-0.403986
0.00102553
-0.35371
0.00118909
-0.321803
-0.306688
0.00131042
4.2362
-1200.4
3.54337
-993.777
2.97772
-822.793
2.51755
-681.27
2.14384
-564.139
1.84039
-467.193
1.59367
-386.961
1.39274
-320.579
1.22859
-265.655
1.09407
-220.245
0.983113
-182.698
0.891266
-151.699
0.814341
-126.112
0.749396
-105.042
0.693696
-87.7208
0.644824
-73.5346
0.60125
-61.9803
0.560701
-52.6368
0.522034
-45.1806
0.483308
-39.3393
0.442678
-34.9052
0.398395
-31.7247
0.347638
-29.6823
0.287838
-28.7105
0.215786
-28.691
0.155288
-23.0118
0.107246
-18.4815
0.0705224
-14.8502
0.0442482
-11.9396
0.0265777
-9.59451
0.01495
-7.71002
0.00851841
-6.18634
0.00434752
-4.96304
0.00260161
-3.97921
0.00173977
-3.18642
0.00115246
-2.55324
0.000938771
-2.04418
0.000794176
-1.639
0.000805984
-1.31605
0.000897412
-1.0593
0.000856822
-0.855725
0.0006606
-0.695468
0.000443251
-0.570708
0.000354744
-0.475209
0.000439084
-0.404153
0.000634101
-0.353953
0.000857023
-0.322117
-0.307042
0.00102997
4.3803
-1199.53
3.66638
-993.063
3.08488
-822.212
2.61309
-680.799
2.23107
-563.757
1.92177
-466.884
1.671
-386.71
1.46729
-320.375
1.30122
-265.488
1.16535
-220.109
1.05338
-182.586
0.960702
-151.606
0.882971
-126.034
0.817178
-104.976
0.760479
-87.6641
0.710368
-73.4846
0.665285
-61.935
0.622809
-52.5946
0.581768
-45.1394
0.540067
-39.2976
0.495718
-34.8609
0.446832
-31.6759
0.390309
-29.6261
0.323344
-28.6437
0.242381
-28.6103
0.174607
-22.9444
0.120729
-18.4278
0.0794462
-14.8092
0.0497459
-11.9098
0.0296191
-9.5739
0.016302
-7.69625
0.00880203
-6.1776
0.00396621
-4.95761
0.00187412
-3.97621
0.000877372
-3.18464
0.000233389
-2.55201
2.39789e-05
-2.04357
-7.10223e-05
-1.63879
4.11122e-06
-1.31613
0.000102149
-1.05945
2.77071e-05
-0.855861
-0.00018078
-0.695584
-0.000349476
-0.570828
-0.000343806
-0.475361
-0.000156758
-0.404371
0.000126467
-0.354257
0.000419966
-0.322493
-0.30745
0.000657469
4.53174
-1198.63
3.79578
-992.327
3.1978
-821.614
2.71405
-680.315
2.32356
-563.367
2.00839
-466.569
1.75363
-386.456
1.54724
-320.169
1.37939
-265.321
1.24231
-219.972
1.12944
-182.473
1.03603
-151.513
0.957568
-125.956
0.890967
-104.91
0.833273
-87.6063
0.781885
-73.4333
0.735211
-61.8882
0.690669
-52.5503
0.647062
-45.0956
0.602128
-39.2528
0.553721
-34.8126
0.499808
-31.622
0.436992
-29.5637
0.362221
-28.5691
0.271574
-28.52
0.195919
-22.8691
0.135718
-18.3676
0.0894808
-14.7632
0.0560404
-11.8763
0.0332045
-9.55051
0.0180082
-7.68048
0.00928085
-6.16755
0.00367616
-4.95132
0.00118013
-3.97264
2.36428e-05
-3.18249
-0.000690362
-2.55056
-0.000919365
-2.04286
-0.000983474
-1.63856
-0.000873774
-1.31622
-0.000799886
-1.05965
-0.000923599
-0.856054
-0.00114101
-0.69577
-0.00125232
-0.57103
-0.00114905
-0.475613
-0.000861149
-0.404707
-0.000491269
-0.354687
-0.000123287
-0.322996
-0.307978
0.000190424
4.69087
-1197.7
3.93185
-991.569
3.31675
-820.998
2.82065
-679.819
2.42152
-562.968
2.10044
-466.248
1.84174
-386.197
1.63278
-319.96
1.46327
-265.151
1.32511
-219.833
1.21145
-182.36
1.11742
-151.419
1.03829
-125.877
0.970918
-104.842