/*--------------------------------*- C++ -*----------------------------------*\
  =========                 |
  \\      /  F ield         | OpenFOAM: The Open Source CFD Toolbox
   \\    /   O peration     | Website:  https://openfoam.org
    \\  /    A nd           | Version:  10
     \\/     M anipulation  |
\*---------------------------------------------------------------------------*/
FoamFile
{
    format      ascii;
    class       volVectorField;
    location    "5";
    object      U;
}
// * * * * * * * * * * * * * * * * * * * * * * * * * * * * * * * * * * * * * //

dimensions      [0 1 -1 0 0 0 0];

internalField   nonuniform List<vector> 
38016
(
(51.3104 9.01618 1.0425e-24)
(51.3074 9.01978 5.34352e-25)
(51.3094 9.01867 -6.45577e-25)
(51.3177 9.02031 0)
(51.3041 9.01751 0)
(51.3171 9.0202 0)
(51.3107 9.01581 1.34772e-25)
(51.3078 9.01774 2.59877e-21)
(51.321 9.01357 -1.73915e-24)
(51.3071 9.01361 2.09704e-24)
(51.3272 9.00745 1.07096e-20)
(51.3211 9.00486 -3.46064e-24)
(51.3471 8.9988 1.62019e-20)
(51.3513 8.98792 2.73449e-20)
(51.3861 8.98123 -2.16708e-20)
(51.409 8.96305 0)
(51.451 8.9487 0)
(51.4991 8.92532 0)
(51.5656 8.89933 6.06761e-23)
(51.6377 8.86563 -6.96188e-23)
(51.7537 8.82659 2.63752e-20)
(51.8867 8.78051 -3.42391e-20)
(52.0859 8.72418 4.25507e-20)
(52.3357 8.65688 -2.07924e-22)
(52.6756 8.5838 5.69612e-20)
(53.168 8.5208 -5.9376e-25)
(53.6228 8.48795 2.73224e-20)
(53.9447 8.4685 -2.74281e-22)
(54.265 8.48718 -3.63547e-25)
(54.6094 8.52627 0)
(54.8817 8.57508 -3.17777e-25)
(55.1534 8.6538 -4.34322e-22)
(55.4607 8.78281 1.82699e-20)
(55.5947 8.8949 0)
(55.8033 9.06278 0)
(56.1652 9.27184 0)
(56.521 9.36467 0)
(56.4937 9.42753 3.59602e-21)
(56.9884 9.70336 2.18558e-21)
(56.9536 9.86771 -1.11531e-23)
(57.1915 10.0298 -1.69836e-23)
(57.8365 10.1906 -6.17333e-21)
(57.7585 10.3174 1.25859e-21)
(58.0375 10.4626 -1.49975e-21)
(58.4682 10.6516 0)
(58.7064 10.7874 0)
(58.9228 10.9797 8.48337e-21)
(59.3616 10.8791 -7.73549e-21)
(51.3126 9.01704 -5.97429e-20)
(51.3064 9.01912 2.10602e-24)
(51.3116 9.01911 4.09789e-20)
(51.3206 9.02097 0)
(51.3005 9.01668 0)
(51.3213 9.02055 -9.60537e-21)
(51.3083 9.01587 -1.00797e-26)
(51.3078 9.01642 -2.59339e-21)
(51.3193 9.01416 1.01602e-20)
(51.3082 9.01191 1.79041e-24)
(51.3207 9.00709 1.04635e-20)
(51.3218 9.00365 5.72152e-24)
(51.3447 8.9982 -1.62006e-20)
(51.3473 8.98682 -2.73139e-20)
(51.3907 8.98059 2.16504e-20)
(51.4067 8.96173 -6.89349e-20)
(51.4582 8.94728 -5.24007e-20)
(51.501 8.92249 8.56838e-23)
(51.5691 8.89534 2.26601e-23)
(51.6352 8.85846 -1.40504e-22)
(51.7515 8.81742 -7.96482e-20)
(51.8904 8.76732 1.03406e-19)
(52.1015 8.70699 -4.27298e-20)
(52.3713 8.63378 -1.01803e-19)
(52.7463 8.55203 5.86391e-20)
(53.2452 8.48118 1.64878e-22)
(53.6897 8.43832 -2.70424e-20)
(53.9772 8.40719 -7.41145e-20)
(54.2966 8.4232 4.89918e-20)
(54.6361 8.46872 0)
(54.8963 8.52721 0)
(55.1415 8.61523 -2.79926e-20)
(55.4779 8.75344 -1.76866e-20)
(55.5733 8.86184 2.3033e-20)
(55.8 9.03007 0)
(56.3181 9.24064 -1.85416e-20)
(56.634 9.34665 0)
(56.3435 9.40911 -3.50645e-21)
(56.9603 9.71239 4.52668e-21)
(56.9043 9.84034 -5.50649e-21)
(56.9643 9.91534 6.61193e-21)
(57.9471 10.1699 2.04547e-21)
(57.6734 10.2671 1.34276e-21)
(57.9372 10.4081 -1.60717e-21)
(58.4081 10.5823 0)
(58.6354 10.6884 0)
(58.7863 10.8603 6.55566e-21)
(59.2381 10.7208 -7.95232e-21)
(51.3062 9.01632 3.62345e-23)
(51.3056 9.01837 0)
(51.3071 9.0184 -8.14274e-20)
(51.3074 9.01844 0)
(51.309 9.0182 0)
(51.3094 9.01778 9.60869e-21)
(51.3122 9.01711 8.66202e-26)
(51.3133 9.01609 -1.97554e-25)
(51.3173 9.01461 -1.01636e-20)
(51.3205 9.01232 1.79602e-24)
(51.3273 9.00919 -2.1209e-20)
(51.3341 9.00456 -3.8304e-20)
(51.3447 8.99803 6.49385e-20)
(51.3615 8.98912 5.49932e-23)
(51.3799 8.97696 -3.79416e-23)
(51.4095 8.96137 6.89221e-20)
(51.4439 8.9417 5.24084e-20)
(51.4913 8.91741 -1.71825e-23)
(51.5562 8.88816 1.00738e-22)
(51.6404 8.85274 0)
(51.756 8.80982 1.61114e-19)
(51.9054 8.75737 -6.93234e-20)
(52.1068 8.69049 8.74352e-20)
(52.3738 8.6105 2.0477e-19)
(52.7378 8.517 1.70179e-21)
(53.1807 8.42646 0)
(53.6055 8.37025 -1.12202e-19)
(54.0086 8.35333 7.40614e-20)
(54.3627 8.37237 -4.90564e-20)
(54.6728 8.42037 0)
(54.955 8.4945 -1.39548e-21)
(55.205 8.59407 -2.56775e-20)
(55.4291 8.70993 -4.58031e-21)
(55.6601 8.83889 -1.73653e-20)
(55.8624 8.98935 2.65625e-20)
(56.0737 9.11913 1.85286e-20)
(56.3389 9.25324 0)
(56.5842 9.44787 1.51716e-20)
(56.8584 9.65758 -4.68007e-21)
(57.0944 9.79656 5.80999e-21)
(57.3311 9.88203 -1.42186e-20)
(57.5743 10.029 8.77395e-21)
(57.8359 10.1996 -1.32286e-20)
(58.0527 10.3261 3.084e-21)
(58.3134 10.4304 -9.87033e-24)
(58.5519 10.519 2.12058e-20)
(58.7963 10.6812 -1.19081e-22)
(59.2274 10.4893 1.70516e-20)
(51.3059 9.01625 1.79223e-19)
(51.3065 9.01833 0)
(51.3072 9.01835 4.04411e-20)
(51.3083 9.01839 5.73864e-24)
(51.3087 9.01815 4.06735e-20)
(51.3107 9.01771 -2.29317e-25)
(51.3113 9.01703 4.48107e-22)
(51.3144 9.01598 0)
(51.3163 9.01446 2.08228e-20)
(51.3214 9.0121 0)
(51.3257 9.00888 -4.26784e-20)
(51.334 9.0041 3.8326e-20)
(51.3442 8.99737 -6.49626e-20)
(51.3597 8.98815 -2.3379e-23)
(51.3806 8.97555 -8.801e-20)
(51.4079 8.95937 -1.39443e-19)
(51.4446 8.93889 1.18681e-22)
(51.491 8.91348 -1.39711e-22)
(51.5559 8.88272 0)
(51.6385 8.84525 1.60911e-19)
(51.7526 8.79954 -2.16814e-19)
(51.9013 8.74329 1.41837e-19)
(52.1019 8.67111 -2.63963e-19)
(52.3675 8.58387 -1.03615e-19)
(52.7323 8.48049 -1.16502e-19)
(53.1786 8.37893 -6.82388e-22)
(53.6095 8.31405 -1.04568e-21)
(54.0059 8.29175 1.54718e-19)
(54.3587 8.30877 -1.03366e-19)
(54.6636 8.35762 0)
(54.9312 8.43443 0)
(55.175 8.53725 -1.19912e-21)
(55.4222 8.65639 3.77787e-20)
(55.6547 8.78744 0)
(55.8909 8.93955 -3.02706e-20)
(56.1616 9.07321 0)
(56.3811 9.20923 0)
(56.5463 9.39116 -1.51567e-20)
(56.8944 9.58296 9.83908e-21)
(57.1497 9.71505 1.18426e-20)
(57.3944 9.80051 -1.48073e-20)
(57.6251 9.92905 -9.23428e-21)
(57.847 10.0633 -2.20962e-20)
(58.0721 10.1619 2.63859e-20)
(58.3411 10.2477 0)
(58.5849 10.3184 1.97485e-22)
(58.8123 10.4376 4.11183e-20)
(59.2197 10.1959 -4.04986e-20)
(51.3059 9.01619 -1.19562e-19)
(51.3064 9.01829 -8.14042e-24)
(51.3072 9.01831 7.91465e-20)
(51.3083 9.01835 -4.45554e-20)
(51.3087 9.01809 -4.06879e-20)
(51.3106 9.01764 -1.65542e-20)
(51.3113 9.01694 1.21141e-21)
(51.3143 9.01586 0)
(51.3163 9.0143 -2.08308e-20)
(51.3213 9.01186 5.53058e-25)
(51.3257 9.00855 4.26807e-20)
(51.3339 9.00361 8.02157e-24)
(51.3441 8.99666 0)
(51.3595 8.9871 -3.19405e-23)
(51.3803 8.97405 8.80817e-20)
(51.4075 8.95724 1.39497e-19)
(51.444 8.93589 1.07078e-19)
(51.4903 8.90927 -1.59885e-19)
(51.555 8.8769 0)
(51.6373 8.83723 -3.23512e-19)
(51.7511 8.78854 1.09026e-19)
(51.8993 8.72827 -1.42193e-19)
(52.0995 8.65046 3.55908e-19)
(52.3647 8.55556 4.39834e-22)
(52.729 8.44174 -4.39201e-22)
(53.1754 8.32852 -6.93552e-22)
(53.607 8.25441 2.32025e-19)
(54.0043 8.22615 -1.5594e-19)
(54.3588 8.24068 -1.85126e-21)
(54.6662 8.28985 0)
(54.9375 8.36869 2.90623e-21)
(55.184 8.47402 5.49141e-20)
(55.4339 8.59548 -3.77869e-20)
(55.6666 8.72746 0)
(55.9 8.87975 0)
(56.1692 9.01537 4.02725e-20)
(56.402 9.15021 -1.26502e-20)
(56.5764 9.31727 1.575e-20)
(56.9165 9.48871 4.28531e-22)
(57.1619 9.60974 -2.50978e-20)
(57.3964 9.69106 1.55597e-20)
(57.6438 9.79454 1.88059e-20)
(57.8624 9.89426 4.59e-20)
(58.0799 9.96509 -6.17705e-20)
(58.3257 10.0253 -6.45258e-20)
(58.5725 10.0725 7.34748e-20)
(58.7884 10.1542 5.14285e-21)
(59.1569 9.87011 5.42465e-21)
(51.3059 9.01612 0)
(51.3064 9.01825 0)
(51.3072 9.01827 -7.91602e-20)
(51.3083 9.0183 4.45658e-20)
(51.3087 9.01804 0)
(51.3106 9.01757 1.65601e-20)
(51.3112 9.01685 -1.66042e-21)
(51.3143 9.01573 5.08667e-25)
(51.3162 9.01412 0)
(51.3212 9.01162 0)
(51.3256 9.00821 8.61322e-20)
(51.3338 9.0031 0)
(51.3439 8.99591 0)
(51.3592 8.986 1.10481e-19)
(51.38 8.97245 1.77657e-19)
(51.4071 8.95496 -1.41051e-19)
(51.4435 8.93268 -1.06997e-19)
(51.4895 8.90478 3.20825e-19)
(51.554 8.87067 2.06866e-22)
(51.636 8.82866 1.62243e-19)
(51.7494 8.7768 -2.22337e-19)
(51.8972 8.71224 0)
(52.0968 8.62848 -1.789e-19)
(52.3614 8.52546 0)
(52.7253 8.40052 0)
(53.1714 8.2749 7.04709e-22)
(53.6037 8.19091 -3.5289e-19)
(54.002 8.15612 1.60117e-19)
(54.3581 8.16773 1.05271e-19)
(54.6676 8.21682 0)
(54.9417 8.29722 9.03416e-20)
(55.1902 8.40445 3.69939e-21)
(55.4428 8.52738 8.3811e-20)
(55.6762 8.65931 3.82692e-20)
(55.9087 8.81038 1.60767e-20)
(56.1775 8.94615 -9.16613e-20)
(56.4176 9.0773 1.30002e-20)
(56.5998 9.22836 -1.61782e-20)
(56.9298 9.37856 -2.06958e-20)
(57.1687 9.48414 3.8253e-20)
(57.3957 9.55663 -4.70735e-20)
(57.6434 9.63485 -3.87856e-20)
(57.8606 9.70342 5.93929e-20)
(58.0668 9.74805 6.98033e-21)
(58.2873 9.78028 -6.70555e-20)
(58.5223 9.80181 7.1498e-20)
(58.7271 9.85526 -5.14484e-21)
(59.0514 9.53925 -5.42631e-21)
(51.3059 9.01604 -1.73784e-23)
(51.3064 9.01821 0)
(51.3072 9.01822 7.74356e-20)
(51.3083 9.01825 -1.0976e-23)
(51.3087 9.01798 3.80599e-24)
(51.3106 9.0175 -5.26263e-24)
(51.3112 9.01676 3.19153e-21)
(51.3143 9.0156 -2.9344e-20)
(51.3162 9.01395 0)
(51.3212 9.01136 9.11095e-20)
(51.3255 9.00784 -8.61638e-20)
(51.3337 9.00256 -1.1611e-23)
(51.3438 8.99512 1.39674e-23)
(51.359 8.98483 -1.10522e-19)
(51.3797 8.97076 -1.77672e-19)
(51.4066 8.95253 1.40962e-19)
(51.4429 8.92926 9.50768e-23)
(51.4887 8.89999 -1.6108e-19)
(51.5529 8.86404 -2.08654e-22)
(51.6346 8.81954 0)
(51.7476 8.7643 2.23293e-19)
(51.8948 8.69521 2.92932e-19)
(52.0938 8.60513 0)
(52.3577 8.4935 0)
(52.7209 8.35679 -1.032e-21)
(53.1666 8.218 1.28488e-21)
(53.5993 8.12344 2.35989e-19)
(53.9986 8.0816 -1.60154e-19)
(54.3563 8.08986 -1.7473e-21)
(54.6678 8.13852 4.48472e-21)
(54.9448 8.22005 -9.92194e-20)
(55.1952 8.3286 1.24069e-19)
(55.4502 8.45227 -7.39486e-20)
(55.6842 8.58331 -1.02784e-19)
(55.916 8.73182 0)
(56.1838 8.86583 4.1278e-20)
(56.4288 8.99113 1.33503e-20)
(56.6184 9.12553 -5.04786e-20)
(56.9337 9.25427 4.19807e-20)
(57.1674 9.34154 -2.66814e-20)
(57.3854 9.40104 0)
(57.6247 9.45592 -9.90101e-21)
(57.8354 9.49714 4.08366e-22)
(58.0297 9.51852 5.92429e-20)
(58.229 9.52531 -1.47603e-19)
(58.4393 9.52106 -5.30675e-22)
(58.6275 9.55319 8.72309e-20)
(58.9142 9.21793 -1.17488e-20)
(51.3059 9.01596 2.40512e-19)
(51.3064 9.01817 -1.317e-19)
(51.3072 9.01817 7.56633e-20)
(51.3083 9.0182 8.4248e-20)
(51.3087 9.01792 1.64516e-24)
(51.3106 9.01743 4.4339e-24)
(51.3112 9.01666 -7.14852e-21)
(51.3143 9.01547 2.93564e-20)
(51.3161 9.01376 -9.48679e-26)
(51.3211 9.01109 -9.11454e-20)
(51.3254 9.00746 0)
(51.3336 9.00199 1.54885e-19)
(51.3436 8.99428 1.97047e-23)
(51.3588 8.98359 -2.36586e-23)
(51.3794 8.96896 -5.17677e-23)
(51.4062 8.94995 -2.85236e-19)
(51.4422 8.92563 -1.22356e-22)
(51.4879 8.89489 1.44037e-22)
(51.5518 8.85699 0)
(51.6332 8.80983 0)
(51.7456 8.75103 0)
(51.8923 8.67713 -2.94179e-19)
(52.0904 8.58037 -1.05448e-22)
(52.3535 8.45963 2.20916e-19)
(52.7159 8.31044 0)
(53.1609 8.1577 0)
(53.5942 8.05189 0)
(53.9944 8.00242 -1.6551e-19)
(54.3539 8.00692 2.21734e-19)
(54.6675 8.05476 -1.51673e-19)
(54.9475 8.13699 -8.48173e-20)
(55.1998 8.24629 -1.3994e-19)
(55.4572 8.37 -7.21256e-20)
(55.6918 8.49935 5.19368e-20)
(55.9231 8.64391 0)
(56.1893 8.77427 0)
(56.4365 8.89184 2.75442e-20)
(56.6327 9.00913 3.31937e-20)
(56.9296 9.11671 -2.12835e-20)
(57.1576 9.18456 2.6672e-20)
(57.3676 9.22869 -6.75932e-20)
(57.5909 9.26213 1.6632e-19)
(57.7891 9.28008 -1.13602e-19)
(57.9668 9.28125 0)
(58.1464 9.26735 1.44024e-19)
(58.3363 9.24228 -1.63964e-19)
(58.5041 9.25756 -1.1536e-20)
(58.7508 8.91177 1.17797e-20)
(51.3059 9.01588 -4.81549e-19)
(51.3065 9.01812 1.31783e-19)
(51.3072 9.01812 -1.53175e-19)
(51.3083 9.01815 -8.42836e-20)
(51.3087 9.01785 0)
(51.3106 9.01735 4.99642e-25)
(51.3112 9.01656 -5.49119e-21)
(51.3143 9.01533 0)
(51.3161 9.01356 8.88728e-20)
(51.3211 9.01081 0)
(51.3253 9.00706 -3.3697e-24)
(51.3335 9.00139 -1.54939e-19)
(51.3434 8.99339 0)
(51.3585 8.98227 0)
(51.379 8.96705 -5.2035e-23)
(51.4057 8.94722 2.85547e-19)
(51.4416 8.92176 -9.62727e-23)
(51.487 8.88947 3.30246e-19)
(51.5506 8.84948 0)
(51.6316 8.79951 0)
(51.7435 8.73692 0)
(51.8895 8.65794 6.34706e-22)
(52.0867 8.55412 -6.77567e-22)
(52.3488 8.42376 -2.20172e-19)
(52.7103 8.26138 0)
(53.1546 8.09386 0)
(53.5883 7.97608 -2.45404e-19)
(53.9896 7.9184 3.31248e-19)
(54.351 7.91867 3.71933e-21)
(54.667 7.96529 1.47004e-19)
(54.9502 8.04774 9.68497e-20)
(55.2044 8.1572 -1.29037e-19)
(55.4643 8.28025 8.21332e-20)
(55.6994 8.40713 0)
(55.9305 8.54644 0)
(56.1943 8.67136 -1.10745e-19)
(56.4412 8.77961 2.89442e-20)
(56.6422 8.87963 3.47629e-20)
(56.9205 8.96714 -4.4914e-20)
(57.1372 9.0156 -2.82081e-20)
(57.3406 9.044 6.96692e-20)
(57.5458 9.05825 -8.53094e-20)
(57.7277 9.05664 0)
(57.8861 9.04093 0)
(58.0393 9.01096 2.79805e-20)
(58.2099 8.97133 0)
(58.3616 8.97416 2.34952e-20)
(58.5661 8.62236 0)
(51.3059 9.01579 2.40975e-19)
(51.3065 9.01807 0)
(51.3072 9.01806 -1.4972e-19)
(51.3083 9.0181 -8.10124e-20)
(51.3086 9.01779 -7.02753e-20)
(51.3106 9.01727 -8.3239e-25)
(51.3111 9.01645 2.04371e-20)
(51.3142 9.01518 5.91569e-24)
(51.316 9.01336 -8.89066e-20)
(51.321 9.01051 -4.615e-24)
(51.3252 9.00664 -1.75392e-19)
(51.3334 9.00076 0)
(51.3433 8.99246 0)
(51.3583 8.98088 0)
(51.3787 8.96502 1.80883e-19)
(51.4052 8.9443 -2.88553e-19)
(51.4409 8.91765 2.21551e-19)
(51.4861 8.8837 -3.30547e-19)
(51.5493 8.84149 2.1399e-22)
(51.6299 8.78853 0)
(51.7412 8.72194 -4.96139e-22)
(51.8865 8.63758 5.4546e-22)
(52.0827 8.5263 0)
(52.3437 8.38578 4.51228e-19)
(52.704 8.20947 -1.07713e-21)
(53.1475 8.02635 1.3411e-21)
(53.5818 7.89584 2.47477e-19)
(53.9842 7.82932 2.67265e-21)
(54.3478 7.82487 -2.2186e-19)
(54.6662 7.86981 -1.56794e-19)
(54.9529 7.952 -6.39043e-21)
(55.2089 8.06101 1.37029e-19)
(55.4713 8.18273 0)
(55.7069 8.30639 0)
(55.938 8.43925 7.09202e-20)
(56.1983 8.55719 8.86039e-20)
(56.4427 8.65492 -5.6304e-20)
(56.6454 8.73786 -3.65509e-20)
(56.9073 8.80683 -1.16258e-21)
(57.1067 8.83701 5.71672e-20)
(57.3016 8.85054 -7.17164e-20)
(57.4892 8.84822 -8.83367e-22)
(57.651 8.83026 8.01573e-20)
(57.7923 8.80157 1.64839e-20)
(57.921 8.761 -1.88832e-20)
(58.071 8.71287 1.76594e-19)
(58.2124 8.7086 -4.01521e-19)
(58.3845 8.35676 2.04772e-19)
(51.3059 9.0157 -2.75554e-23)
(51.3065 9.01802 -2.57176e-19)
(51.3072 9.01801 2.97763e-19)
(51.3083 9.01805 8.10557e-20)
(51.3086 9.01772 7.03089e-20)
(51.3106 9.01718 3.94827e-24)
(51.3111 9.01634 -1.0988e-20)
(51.3142 9.01502 -2.64273e-24)
(51.316 9.01315 3.85708e-24)
(51.321 9.0102 -4.65293e-24)
(51.3252 9.00619 -7.08214e-22)
(51.3332 9.00009 -2.55153e-25)
(51.3431 8.99147 0)
(51.358 8.97941 2.2404e-19)
(51.3783 8.96287 -1.80911e-19)
(51.4047 8.94121 2.88577e-19)
(51.4402 8.91327 -2.21533e-19)
(51.4851 8.87755 -3.35436e-19)
(51.548 8.83299 -2.66686e-22)
(51.6281 8.77686 -6.62457e-23)
(51.7388 8.70602 -8.1895e-23)
(51.8832 8.61598 -3.05213e-19)
(52.0784 8.49685 -6.92642e-22)
(52.3381 8.34562 -4.51334e-19)
(52.6972 8.15461 0)
(53.1395 7.95503 1.52127e-21)
(53.5744 7.81102 -1.89439e-21)
(53.9781 7.735 1.79123e-19)
(54.3441 7.7253 -3.4997e-21)
(54.6652 7.76809 -2.59864e-21)
(54.9555 7.84949 -2.04366e-19)
(55.2134 7.95744 1.42383e-19)
(55.4782 8.07719 -1.05952e-20)
(55.7141 8.19693 1.26879e-19)
(55.9451 8.3223 -8.86184e-20)
(56.2011 8.43202 0)
(56.4407 8.51845 0)
(56.6407 8.58486 -3.83256e-20)
(56.8877 8.63694 4.62818e-20)
(57.0683 8.65091 -4.34784e-23)
(57.2507 8.65117 1.83659e-19)
(57.4193 8.63507 -9.03e-20)
(57.5582 8.60402 2.73867e-20)
(57.6831 8.56579 -1.65108e-20)
(57.7924 8.51889 -1.58748e-19)
(57.9173 8.4658 1.80608e-19)
(58.0441 8.45741 0)
(58.1874 8.10915 2.12736e-19)
(51.3059 9.01561 -4.83996e-19)
(51.3065 9.01797 -2.5296e-19)
(51.3072 9.01795 -1.48042e-19)
(51.3083 9.01799 1.55634e-19)
(51.3086 9.01765 -9.70947e-24)
(51.3106 9.01709 -4.53456e-20)
(51.3111 9.01622 0)
(51.3142 9.01486 -6.9173e-20)
(51.3159 9.01292 -9.22199e-20)
(51.3209 9.00987 -9.40319e-20)
(51.3251 9.00573 3.53171e-19)
(51.3331 8.99939 2.04708e-24)
(51.3429 8.99042 0)
(51.3577 8.97785 -4.48838e-19)
(51.3779 8.96059 -3.64936e-19)
(51.4041 8.93793 -2.91699e-19)
(51.4395 8.90862 9.80472e-23)
(51.4841 8.87102 3.35551e-19)
(51.5466 8.82395 0)
(51.6263 8.76446 -3.76018e-22)
(51.7362 8.68913 4.23479e-22)
(51.8797 8.5931 3.05838e-19)
(52.0737 8.46569 7.00145e-22)
(52.332 8.30319 -9.64156e-22)
(52.6896 8.09671 2.65905e-19)
(53.1307 7.87979 3.72276e-19)
(53.5661 7.72148 -2.55094e-19)
(53.9712 7.63527 -7.00065e-19)
(54.3398 7.61974 -7.61422e-21)
(54.6638 7.65987 1.54271e-19)
(54.958 7.73994 2.16972e-19)
(55.2178 7.84625 2.4278e-21)
(55.4848 7.96341 -1.77525e-19)
(55.7206 8.07859 -1.12698e-19)
(55.9513 8.19566 3.71652e-20)
(56.2023 8.2963 -1.88405e-19)
(56.4349 8.37099 -6.16287e-20)
(56.628 8.42195 7.34013e-20)
(56.8596 8.4588 -4.72887e-20)
(57.0237 8.4593 -9.01191e-20)
(57.1912 8.4485 2.63837e-19)
(57.3377 8.42143 -1.85486e-19)
(57.4544 8.38109 2.29537e-19)
(57.5652 8.33694 -5.68697e-19)
(57.6607 8.28727 3.24055e-19)
(57.7602 8.23177 0)
(57.8677 8.22093 4.40375e-19)
(57.9834 7.87783 -4.47864e-19)
(51.3059 9.01551 4.84154e-19)
(51.3065 9.01792 7.63545e-19)
(51.3072 9.01789 -1.446e-19)
(51.3083 9.01793 -3.08092e-19)
(51.3086 9.01757 0)
(51.3105 9.017 4.53634e-20)
(51.3111 9.0161 0)
(51.3142 9.01469 6.91999e-20)
(51.3159 9.01269 9.22481e-20)
(51.3209 9.00953 9.40777e-20)
(51.325 9.00524 -3.54716e-19)
(51.333 8.99865 -1.56504e-19)
(51.3427 8.98932 2.68108e-19)
(51.3575 8.9762 2.24765e-19)
(51.3775 8.95817 3.65016e-19)
(51.4035 8.93444 2.91783e-19)
(51.4387 8.90367 0)
(51.483 8.86407 0)
(51.5451 8.81434 2.71448e-22)
(51.6243 8.75129 3.50479e-19)
(51.7334 8.67122 -4.78442e-19)
(51.876 8.56888 0)
(52.0686 8.43275 0)
(52.3253 8.25841 0)
(52.6812 8.03567 -5.31129e-19)
(53.1208 7.80051 -7.58833e-19)
(53.5569 7.62707 2.58999e-19)
(53.9635 7.52996 3.52793e-19)
(54.3351 7.508 0)
(54.6621 7.54493 0)
(54.9604 7.62312 1.3487e-20)
(55.2219 7.72721 -1.5319e-19)
(55.4909 7.84122 1.77543e-19)
(55.7265 7.9513 -2.95398e-20)
(55.956 8.05949 1.12311e-19)
(56.2015 8.15056 9.46798e-20)
(56.4244 8.21343 -1.32632e-21)
(56.6086 8.2506 7.66782e-20)
(56.8239 8.27413 0)
(56.9733 8.26383 -2.47702e-19)
(57.1243 8.24424 1.92377e-19)
(57.246 8.20884 0)
(57.3429 8.16298 0)
(57.4426 8.11651 1.74706e-20)
(57.5301 8.06764 0)
(57.6121 8.01344 2.42289e-20)
(57.7078 8.00381 -2.61962e-20)
(57.8077 7.67037 1.38552e-20)
(51.3059 9.0154 -4.85452e-19)
(51.3065 9.01786 -2.15583e-21)
(51.3072 9.01783 -1.41066e-19)
(51.3083 9.01787 3.01738e-19)
(51.3086 9.0175 -6.28411e-20)
(51.3105 9.01691 -6.9275e-24)
(51.311 9.01598 0)
(51.3141 9.01452 -7.2652e-24)
(51.3158 9.01244 8.76768e-24)
(51.3208 9.00917 0)
(51.3248 9.00472 -6.9488e-22)
(51.3328 8.99787 1.56566e-19)
(51.3425 8.98815 -2.68212e-19)
(51.3572 8.97445 4.51772e-19)
(51.3771 8.9556 0)
(51.4029 8.93074 0)
(51.4379 8.89841 0)
(51.4819 8.85668 0)
(51.5436 8.80413 -2.7381e-22)
(51.6222 8.73731 -3.50574e-19)
(51.7304 8.65224 9.61634e-19)
(51.872 8.54326 6.69893e-22)
(52.0631 8.39799 -7.15057e-22)
(52.3179 8.21123 4.73041e-19)
(52.672 7.97142 2.68432e-19)
(53.11 7.71713 7.6648e-19)
(53.5466 7.52771 -4.3544e-21)
(53.9549 7.41894 5.42536e-21)
(54.3296 7.38993 -2.4448e-19)
(54.6599 7.42308 0)
(54.9625 7.49883 0)
(55.2258 7.60014 1.59205e-19)
(55.4965 7.71051 -2.23946e-20)
(55.7315 7.81504 3.01267e-20)
(55.9586 7.91407 -2.67007e-19)
(56.1984 7.99543 9.8705e-20)
(56.4091 8.04676 6.17202e-20)
(56.5838 8.07223 -8.01603e-20)
(56.7824 8.08458 2.5151e-19)
(56.9163 8.06564 1.28161e-19)
(57.0499 8.03939 -3.70578e-20)
(57.1471 7.99833 -4.41445e-19)
(57.2266 7.94982 2.39063e-19)
(57.313 7.90268 -3.2804e-19)
(57.387 7.85486 3.41578e-19)
(57.4471 7.80207 3.45185e-19)
(57.5251 7.79397 -4.33292e-19)
(57.6076 7.47012 0)
(51.3059 9.01529 9.71735e-19)
(51.3065 9.0178 -4.99973e-19)
(51.3072 9.01777 2.85733e-19)
(51.3082 9.0178 -3.24504e-21)
(51.3086 9.01742 6.28667e-20)
(51.3105 9.01681 6.60328e-24)
(51.311 9.01585 2.13065e-27)
(51.3141 9.01434 -7.5438e-20)
(51.3158 9.01219 -1.59286e-23)
(51.3208 9.0088 1.9215e-23)
(51.3247 9.00418 1.78552e-19)
(51.3327 8.99704 -1.05831e-23)
(51.3423 8.98693 2.69666e-19)
(51.3568 8.9726 1.03226e-21)
(51.3767 8.95289 -3.69609e-19)
(51.4023 8.92681 -8.4124e-23)
(51.437 8.89283 9.97883e-23)
(51.4807 8.84884 0)
(51.542 8.7933 -2.76157e-22)
(51.62 8.7225 -6.97307e-23)
(51.7273 8.63216 -4.82748e-19)
(51.8677 8.51619 0)
(52.0571 8.36133 4.00391e-19)
(52.31 8.16158 -9.49569e-19)
(52.6619 7.9039 -1.99681e-21)
(53.098 7.62957 -3.85897e-19)
(53.5352 7.42331 2.70465e-19)
(53.9453 7.30211 -5.97865e-21)
(54.3235 7.26536 1.1668e-20)
(54.6573 7.29413 -9.96902e-21)
(54.9644 7.36691 -1.39627e-20)
(55.2293 7.4649 -2.67591e-19)
(55.5013 7.57123 1.87585e-19)
(55.7355 7.66987 3.07141e-20)
(55.9589 7.75974 1.15655e-19)
(56.1926 7.83157 -1.99463e-19)
(56.3894 7.87208 -6.43567e-20)
(56.5542 7.88794 0)
(56.7363 7.89136 1.07612e-21)
(56.8533 7.86573 -6.39218e-20)
(56.9694 7.83496 0)
(57.0465 7.79145 4.95744e-20)
(57.1138 7.74387 -3.10436e-20)
(57.1905 7.6989 3.67421e-20)
(57.2537 7.65366 0)
(57.297 7.60315 2.48611e-20)
(57.3604 7.5968 0)
(57.4286 7.2823 0)
(51.3059 9.01518 -4.86339e-19)
(51.3065 9.01774 4.96006e-19)
(51.3072 9.0177 -2.78807e-19)
(51.3082 9.01774 1.39634e-19)
(51.3086 9.01733 0)
(51.3105 9.01671 0)
(51.311 9.01571 -4.04913e-20)
(51.3141 9.01414 7.54684e-20)
(51.3157 9.01192 0)
(51.3207 9.0084 1.53451e-23)
(51.3246 9.00361 -1.84993e-23)
(51.3325 8.99618 3.14871e-19)
(51.342 8.98563 -2.69774e-19)
(51.3565 8.97065 -4.53107e-19)
(51.3762 8.95001 -1.38991e-21)
(51.4016 8.92264 0)
(51.4361 8.88691 0)
(51.4795 8.84052 -1.92732e-22)
(51.5403 8.78182 2.24439e-22)
(51.6177 8.70681 7.2077e-19)
(51.724 8.61092 -4.39483e-22)
(51.8631 8.48764 0)
(52.0507 8.32276 -8.0332e-19)
(52.3013 8.10942 4.76774e-19)
(52.6509 7.83308 0)
(53.0847 7.53781 0)
(53.5226 7.31381 -2.75022e-19)
(53.9346 7.17937 3.8015e-19)
(54.3167 7.13418 2.48367e-19)
(54.6542 7.15797 0)
(54.966 7.22721 0)
(55.2324 7.32141 -2.45608e-21)
(55.5055 7.42342 -2.36001e-19)
(55.7384 7.51596 6.03836e-20)
(55.9567 7.59693 -1.59997e-19)
(56.1835 7.65969 -1.96381e-21)
(56.3659 7.69045 1.96105e-19)
(56.5202 7.69868 -8.04296e-20)
(56.6865 7.69537 1.59708e-19)
(56.7862 7.66502 -5.95217e-19)
(56.8844 7.63146 3.28654e-19)
(56.9447 7.58785 0)
(57.0011 7.54348 3.11202e-20)
(57.0678 7.50279 0)
(57.1228 7.46206 -7.66517e-19)
(57.1581 7.41602 8.20617e-19)
(57.2155 7.41328 0)
(57.2778 7.10944 0)
(51.3059 9.01506 0)
(51.3065 9.01768 -2.47019e-19)
(51.3072 9.01763 3.55884e-21)
(51.3082 9.01767 -2.85875e-19)
(51.3086 9.01725 -1.14467e-19)
(51.3105 9.0166 3.06482e-20)
(51.311 9.01557 4.05079e-20)
(51.3141 9.01395 1.52403e-23)
(51.3157 9.01164 -1.95522e-19)
(51.3206 9.00799 1.93814e-19)
(51.3245 9.00301 -8.98425e-24)
(51.3324 8.99527 -3.14956e-19)
(51.3418 8.98426 -2.02033e-23)
(51.3562 8.96859 -4.55217e-19)
(51.3757 8.94697 3.7122e-19)
(51.401 8.91823 5.98609e-19)
(51.4352 8.88064 -5.04615e-23)
(51.4782 8.83171 0)
(51.5385 8.76966 0)
(51.6153 8.69022 -7.20926e-19)
(51.7204 8.5885 4.43406e-22)
(51.8582 8.45757 1.38109e-21)
(52.0438 8.28221 4.03149e-19)
(52.292 8.05474 4.89103e-19)
(52.6388 7.75894 -2.36358e-21)
(53.0702 7.44183 2.9434e-21)
(53.5086 7.19921 2.78134e-19)
(53.9227 7.05069 -3.62346e-19)
(54.3089 6.99634 -1.53591e-20)
(54.6504 7.01449 -1.4885e-19)
(54.9671 7.07966 -2.53487e-19)
(55.235 7.16964 1.84094e-19)
(55.5089 7.26714 -4.72224e-20)
(55.7402 7.35351 -6.3776e-20)
(55.9525 7.42612 2.39614e-19)
(56.171 7.48051 2.08068e-19)
(56.3395 7.50294 -1.30775e-19)
(56.4835 7.50547 -3.36308e-19)
(56.6338 7.49742 0)
(56.7164 7.46447 6.67521e-20)
(56.7968 7.42997 -3.82333e-19)
(56.8438 7.38808 3.63786e-19)
(56.8899 7.34738 5.48485e-19)
(56.941 7.30994 -6.18211e-19)
(56.9791 7.27191 4.53535e-20)
(56.9991 7.22869 0)
(57.0426 7.22822 -2.92511e-20)
(57.0924 6.93312 -1.01544e-18)
(51.3059 9.01494 0)
(51.3065 9.01762 0)
(51.3072 9.01756 2.75416e-19)
(51.3082 9.0176 1.36578e-19)
(51.3086 9.01716 1.14522e-19)
(51.3105 9.01649 -2.93275e-21)
(51.3109 9.01542 0)
(51.314 9.01374 0)
(51.3156 9.01135 1.95566e-19)
(51.3205 9.00756 1.05402e-21)
(51.3244 9.00239 3.62909e-19)
(51.3322 8.99431 3.32957e-23)
(51.3416 8.98283 2.71939e-19)
(51.3558 8.96642 -9.64971e-22)
(51.3752 8.94375 0)
(51.4003 8.91356 2.78242e-21)
(51.4343 8.87401 -5.29492e-23)
(51.4769 8.82239 7.7252e-23)
(51.5367 8.75681 2.83079e-22)
(51.6127 8.67271 -7.22139e-22)
(51.7167 8.56487 4.47288e-22)
(51.853 8.42594 -6.57636e-19)
(52.0364 8.23969 4.13502e-19)
(52.2818 7.99751 7.23962e-21)
(52.6257 7.6815 2.83251e-19)
(53.0542 7.34165 4.0649e-19)
(53.4931 7.07951 1.29612e-20)
(53.9094 6.91606 1.81265e-19)
(54.3002 6.85178 0)
(54.6459 6.86364 3.44245e-19)
(54.9678 6.92423 1.96845e-19)
(55.237 7.00962 3.66527e-20)
(55.5117 7.10255 -1.97689e-19)
(55.7406 7.18282 6.49438e-20)
(55.9463 7.2478 8.49561e-20)
(56.1555 7.29481 2.1398e-19)
(56.3108 7.31052 1.37264e-19)
(56.4458 7.3093 -8.53207e-20)
(56.5792 7.29813 -2.20308e-19)
(56.6454 7.26476 5.5032e-19)
(56.7095 7.23172 -2.9968e-19)
(56.7487 7.19438 -3.76588e-19)
(56.7905 7.15931 4.23558e-19)
(56.8327 7.12606 6.355e-19)
(56.8605 7.09089 -7.91621e-19)
(56.8713 7.05035 -2.69431e-20)
(56.9044 7.05179 2.93288e-20)
(56.9449 6.76508 1.03455e-18)
(51.3059 9.01481 -4.89164e-19)
(51.3065 9.01755 1.21423e-22)
(51.3072 9.01748 -6.83163e-23)
(51.3082 9.01752 -4.03381e-19)
(51.3086 9.01706 1.06967e-19)
(51.3104 9.01638 -2.77295e-20)
(51.3109 9.01526 -1.0362e-23)
(51.314 9.01353 -1.26238e-24)
(51.3155 9.01105 1.89593e-23)
(51.3204 9.00711 1.04542e-21)
(51.3242 9.00174 -7.27477e-19)
(51.332 8.99331 -4.79189e-23)
(51.3413 8.98131 -8.17307e-19)
(51.3554 8.96412 -9.78119e-22)
(51.3747 8.94036 -1.43409e-23)
(51.3995 8.90863 -1.20608e-18)
(51.4333 8.86699 4.68086e-19)
(51.4755 8.81253 0)
(51.5348 8.74324 1.42668e-22)
(51.6101 8.65424 -1.63754e-22)
(51.7127 8.54001 5.05606e-19)
(51.8474 8.39274 -5.97621e-21)
(52.0285 8.19518 -4.12818e-19)
(52.2708 7.93777 -4.94466e-19)
(52.6114 7.60078 -5.7404e-19)
(53.0366 7.23736 -6.05628e-19)
(53.4761 6.95479 -5.76295e-19)
(53.8947 6.77554 -3.88328e-19)
(54.2904 6.70053 -1.70128e-20)
(54.6405 6.70542 -1.52279e-19)
(54.9679 6.76095 2.98472e-20)
(55.2384 6.84145 -7.64021e-20)
(55.5139 6.92984 1.95595e-19)
(55.7397 7.00425 6.36663e-20)
(55.9384 7.06252 -1.66069e-19)
(56.1379 7.10339 1.87825e-21)
(56.2803 7.1141 0)
(56.4074 7.11102 8.8549e-20)
(56.5228 7.09811 0)
(56.5743 7.06603 2.82398e-19)
(56.6247 7.03589 4.18708e-21)
(56.6564 7.00396 -8.1619e-19)
(56.6905 6.97466 5.31167e-19)
(56.7222 6.94588 6.47725e-19)
(56.7425 6.91442 5.20737e-20)
(56.7488 6.87793 -8.43814e-19)
(56.7765 6.88227 0)
(56.8128 6.60428 -1.02354e-18)
(51.3059 9.01468 9.78956e-19)
(51.3065 9.01748 0)
(51.3072 9.0174 -2.64999e-19)
(51.3082 9.01745 3.97143e-19)
(51.3086 9.01697 -1.07013e-19)
(51.3104 9.01626 2.19023e-20)
(51.3109 9.01511 -2.007e-24)
(51.3139 9.0133 8.57593e-20)
(51.3154 9.01073 -1.38456e-23)
(51.3204 9.00664 -1.96069e-19)
(51.3241 9.00105 3.64502e-19)
(51.3318 8.99226 0)
(51.341 8.97972 5.45434e-19)
(51.355 8.96171 4.57707e-19)
(51.3742 8.93678 -7.5377e-19)
(51.3988 8.90343 1.21184e-18)
(51.4322 8.85959 2.53854e-21)
(51.4741 8.80214 1.2405e-23)
(51.5327 8.72893 -8.63347e-23)
(51.6072 8.63481 -7.44692e-19)
(51.7085 8.51389 -1.01537e-18)
(51.8415 8.35797 6.62353e-19)
(52.0199 8.14868 -4.2e-19)
(52.259 7.87553 5.06831e-19)
(52.5958 7.51687 2.86617e-19)
(53.0174 7.12905 -2.45566e-21)
(53.4573 6.82515 2.85883e-19)
(53.8784 6.62921 1.82701e-19)
(54.2793 6.54267 1.60454e-20)
(54.6342 6.5399 2.29725e-20)
(54.9674 6.58988 -2.86547e-20)
(55.2391 6.66529 0)
(55.5153 6.74928 2.5628e-19)
(55.7375 6.81822 -1.97642e-19)
(55.9288 6.87085 0)
(56.1196 6.9071 -1.08665e-19)
(56.2491 6.91448 1.42126e-19)
(56.3687 6.91139 -1.75639e-19)
(56.4654 6.89828 0)
(56.5051 6.86931 2.87461e-19)
(56.5464 6.8432 -4.4522e-19)
(56.5721 6.8162 8.61242e-22)
(56.5934 6.79043 6.74059e-20)
(56.606 6.76342 0)
(56.6085 6.73331 7.76017e-19)
(56.6003 6.69899 -8.84617e-19)
(56.6127 6.70526 9.84925e-19)
(56.6392 6.43465 -1.03543e-18)
(51.3059 9.01454 -4.89921e-19)
(51.3065 9.0174 0)
(51.3072 9.01732 5.26673e-19)
(51.3082 9.01737 -3.84528e-19)
(51.3085 9.01687 0)
(51.3104 9.01614 -2.90486e-21)
(51.3108 9.01494 5.5988e-20)
(51.3139 9.01307 -1.73668e-19)
(51.3154 9.0104 5.71672e-24)
(51.3203 9.00615 1.98256e-19)
(51.3239 9.00033 7.57185e-23)
(51.3316 8.99115 9.62728e-23)
(51.3407 8.97805 -1.15798e-22)
(51.3546 8.95917 0)
(51.3736 8.93301 7.54192e-19)
(51.398 8.89796 -6.07619e-19)
(51.4312 8.85179 -4.7071e-19)
(51.4726 8.79119 -1.57444e-22)
(51.5306 8.71388 -5.27177e-19)
(51.6043 8.6144 1.49503e-18)
(51.7041 8.48653 5.09699e-19)
(51.8352 8.32163 3.02932e-22)
(52.0108 8.10023 4.19021e-19)
(52.2461 7.81086 -5.02976e-19)
(52.579 7.42987 -4.96056e-21)
(52.9965 7.01686 3.75716e-21)
(53.4367 6.69076 0)
(53.8603 6.47722 0)
(54.2669 6.3783 2.53928e-19)
(54.6269 6.36718 1.8004e-19)
(54.9662 6.41119 -1.71441e-21)
(55.2394 6.48139 -1.98553e-21)
(55.5162 6.56119 5.37242e-20)
(55.7346 6.62524 -2.14287e-21)
(55.9178 6.67342 0)
(56.1016 6.70675 1.1317e-19)
(56.2181 6.71245 -4.29784e-19)
(56.3302 6.71099 9.00089e-20)
(56.409 6.69918 0)
(56.4398 6.67508 -2.92396e-19)
(56.4755 6.65487 -5.48089e-21)
(56.4999 6.63434 3.93148e-19)
(56.5162 6.61335 -6.96268e-20)
(56.5209 6.5893 4.19777e-20)
(56.5162 6.56163 -4.95365e-20)
(56.5015 6.53029 5.68205e-20)
(56.5058 6.53881 0)
(56.5283 6.27629 3.32122e-20)
(51.3059 9.01439 5.30111e-23)
(51.3065 9.01733 -1.18919e-22)
(51.3072 9.01724 -2.61609e-19)
(51.3082 9.01728 2.54339e-19)
(51.3085 9.01676 0)
(51.3104 9.01601 -5.12514e-20)
(51.3108 9.01477 -5.60253e-20)
(51.3138 9.01283 -2.0217e-21)
(51.3153 9.01006 7.31757e-23)
(51.3201 9.00564 -1.98396e-19)
(51.3238 8.99958 -5.58451e-23)
(51.3314 8.99 -3.18159e-19)
(51.3404 8.9763 -5.49295e-19)
(51.3542 8.9565 4.60365e-19)
(51.373 8.92905 -7.59121e-19)
(51.3971 8.89219 -6.13373e-19)
(51.4301 8.84359 -6.19394e-23)
(51.4711 8.77969 3.16778e-22)
(51.5284 8.69809 5.26923e-19)
(51.6012 8.593 6.11685e-21)
(51.6994 8.4579 -1.15568e-22)
(51.8285 8.28373 -3.61687e-22)
(52.001 8.04987 -4.28104e-19)
(52.2323 7.74385 0)
(52.5607 7.33993 -1.49192e-19)
(52.9736 6.901 -2.38175e-21)