/*--------------------------------*- C++ -*----------------------------------*\
  =========                 |
  \\      /  F ield         | OpenFOAM: The Open Source CFD Toolbox
   \\    /   O peration     | Website:  https://openfoam.org
    \\  /    A nd           | Version:  10
     \\/     M anipulation  |
\*---------------------------------------------------------------------------*/
FoamFile
{
    format      ascii;
    class       volScalarField;
    location    "10";
    object      k;
}
// * * * * * * * * * * * * * * * * * * * * * * * * * * * * * * * * * * * * * //

dimensions      [0 2 -2 0 0 0 0];

internalField   nonuniform List<scalar> 
38016
(
0.0274718
0.0308997
0.0346946
0.0388321
0.0433364
0.0482339
0.0535521
0.0593165
0.0655467
0.0722504
0.0794176
0.0870154
0.0949824
0.103227
0.111628
0.12004
0.128297
0.136226
0.143657
0.150429
0.1564
0.161453
0.1655
0.168478
0.170385
0.171751
0.173012
0.17415
0.17518
0.176111
0.176958
0.177735
0.178455
0.179129
0.179761
0.180358
0.180928
0.181477
0.182017
0.182561
0.183123
0.183721
0.184363
0.185044
0.185652
0.186066
0.186551
0.187889
0.0273767
0.0307516
0.034524
0.0386364
0.0431121
0.0479764
0.0532555
0.0589737
0.0651488
0.0717867
0.0788759
0.0863812
0.0942394
0.102357
0.11061
0.11885
0.12691
0.134614
0.141789
0.14827
0.153912
0.158595
0.162226
0.164742
0.16614
0.16703
0.167903
0.168728
0.169502
0.170226
0.170903
0.171542
0.172147
0.172725
0.173276
0.173805
0.174313
0.174807
0.175297
0.175793
0.176311
0.176867
0.177471
0.178119
0.178692
0.179081
0.179578
0.180941
0.027267
0.030587
0.0343352
0.0384207
0.042866
0.0476951
0.0529331
0.0586025
0.0647196
0.0712887
0.0782963
0.0857054
0.0934509
0.101437
0.109538
0.117604
0.125466
0.132946
0.139868
0.146067
0.151394
0.155727
0.158973
0.161066
0.162008
0.162476
0.163009
0.163561
0.164116
0.164662
0.165195
0.165715
0.166223
0.16672
0.167203
0.167673
0.16813
0.168579
0.169028
0.169487
0.169971
0.170495
0.171072
0.1717
0.172248
0.172618
0.173136
0.174538
0.0271432
0.0304065
0.0341293
0.0381865
0.0425997
0.047392
0.0525868
0.0582052
0.064262
0.0707595
0.0776825
0.0849922
0.0926214
0.100473
0.10842
0.11631
0.123974
0.131232
0.137909
0.143836
0.148866
0.152874
0.155767
0.157481
0.158021
0.158123
0.158366
0.158686
0.159056
0.159453
0.159866
0.160289
0.160717
0.161148
0.161575
0.161997
0.162412
0.162823
0.163237
0.163664
0.164117
0.164613
0.165165
0.165773
0.166294
0.166641
0.167184
0.168644
0.0270058
0.0302107
0.0339067
0.0379341
0.0423137
0.0470672
0.0522169
0.0577822
0.063776
0.070199
0.0770342
0.0842409
0.0917504
0.0994638
0.107253
0.114966
0.122431
0.12947
0.135907
0.141573
0.14632
0.150026
0.152596
0.153969
0.154155
0.153941
0.153934
0.154058
0.154272
0.154544
0.154856
0.155198
0.15556
0.155935
0.156315
0.156696
0.157073
0.15745
0.157832
0.158228
0.158652
0.159119
0.159643
0.160228
0.160713
0.161024
0.161594
0.163144
0.0268554
0.0299998
0.0336676
0.0376636
0.0420078
0.0467206
0.0518228
0.0573326
0.0632607
0.069606
0.0763497
0.0834495
0.090835
0.0984062
0.106034
0.113566
0.120831
0.127652
0.133852
0.139265
0.143743
0.147164
0.149436
0.1505
0.150371
0.149878
0.149655
0.149609
0.14969
0.149856
0.150084
0.150357
0.150661
0.150988
0.151327
0.151671
0.152015
0.152359
0.15271
0.153076
0.15347
0.153906
0.1544
0.154958
0.155401
0.15567
0.156276
0.157953
0.0266925
0.0297743
0.0334123
0.0373754
0.0416823
0.0463524
0.051405
0.0568565
0.062716
0.0689804
0.0756289
0.0826177
0.0898749
0.0972995
0.104762
0.11211
0.119174
0.125776
0.131743
0.136909
0.14113
0.144282
0.146278
0.14706
0.14665
0.145913
0.145501
0.145309
0.145275
0.14535
0.145505
0.145719
0.145975
0.146261
0.146564
0.146875
0.147187
0.147502
0.147824
0.148161
0.148526
0.148932
0.149395
0.149926
0.150329
0.150558
0.151214
0.153062
0.0265178
0.0295349
0.0331417
0.0370701
0.041338
0.0459634
0.0509642
0.0563549
0.062143
0.0683232
0.074873
0.0817468
0.0888714
0.0961452
0.103439
0.1106
0.11746
0.123845
0.129582
0.134509
0.138483
0.141384
0.143124
0.143651
0.142992
0.142041
0.141465
0.141148
0.141016
0.141015
0.141109
0.141273
0.141487
0.141737
0.142008
0.142289
0.142574
0.142861
0.143156
0.143466
0.143803
0.14418
0.144612
0.145119
0.145484
0.14568
0.146401
0.148462
0.026332
0.0292821
0.0328563
0.0367487
0.0409759
0.0455548
0.0505015
0.0558291
0.061543
0.067636
0.0740835
0.0808384
0.0878265
0.0949456
0.102066
0.109038
0.115694
0.121863
0.127375
0.132071
0.13581
0.138475
0.139981
0.140279
0.139401
0.138265
0.137549
0.137125
0.136912
0.136846
0.136889
0.137011
0.13719
0.137409
0.137652
0.137907
0.138166
0.138428
0.138698
0.138982
0.139292
0.139642
0.140045
0.14053
0.140864
0.14103
0.14183
0.144147
0.0261358
0.0290167
0.0325571
0.0364119
0.0405969
0.0451274
0.0500182
0.0552803
0.0609172
0.0669201
0.073262
0.0798945
0.0867425
0.0937033
0.100649
0.107429
0.113881
0.119835
0.125127
0.1296
0.133117
0.135564
0.136857
0.13695
0.135882
0.134588
0.133753
0.13324
0.132958
0.13284
0.13284
0.132928
0.133077
0.13327
0.13349
0.133721
0.133957
0.134196
0.134442
0.134702
0.134987
0.13531
0.135686
0.136153
0.136461
0.136604
0.137495
0.140106
0.0259298
0.0287393
0.0322448
0.0360608
0.0402021
0.0446826
0.0495154
0.0547097
0.0602673
0.0661771
0.0724104
0.0789172
0.0856215
0.0924209
0.0991882
0.105776
0.112024
0.117767
0.122844
0.127104
0.130412
0.132656
0.133757
0.13367
0.132439
0.131011
0.130077
0.129491
0.129154
0.128993
0.128959
0.129018
0.129143
0.129314
0.129513
0.129724
0.129938
0.130156
0.130381
0.130618
0.13088
0.131178
0.13153
0.131982
0.132269
0.132394
0.133389
0.136328
0.0257149
0.0284508
0.0319202
0.0356962
0.0397923
0.0442212
0.0489943
0.0541188
0.0595945
0.0654086
0.0715305
0.0779084
0.084466
0.0911014
0.0976886
0.104083
0.110128
0.115663
0.120532
0.124588
0.1277
0.129759
0.130688
0.130445
0.129075
0.127537
0.126522
0.125876
0.125495
0.1253
0.12524
0.125276
0.125382
0.125535
0.125716
0.125909
0.126104
0.126302
0.126507
0.126723
0.126964
0.12724
0.12757
0.128012
0.128283
0.128393
0.129504
0.132798
0.0254917
0.0281518
0.0315842
0.035319
0.0393688
0.0437446
0.0484561
0.0535089
0.0589005
0.0646163
0.0706241
0.0768705
0.0832788
0.0897478
0.0961535
0.102355
0.108198
0.11353
0.118198
0.122059
0.124989
0.12688
0.127656
0.127279
0.125795
0.124168
0.123088
0.122395
0.12198
0.12176
0.121679
0.121698
0.121788
0.121927
0.122093
0.12227
0.122449
0.122629
0.122815
0.123012
0.123233
0.12349
0.123801
0.124235
0.124494
0.124595
0.125831
0.129506
0.0252611
0.027843
0.0312375
0.0349301
0.0389324
0.0432537
0.0479022
0.0528813
0.0581868
0.063802
0.0696932
0.0758058
0.0820626
0.0883635
0.0945869
0.100595
0.10624
0.111373
0.115846
0.119525
0.122285
0.124025
0.124668
0.124178
0.122602
0.120906
0.119774
0.119046
0.118606
0.118368
0.118272
0.118279
0.118357
0.118484
0.118638
0.118802
0.118965
0.119129
0.119299
0.119479
0.119682
0.119922
0.120217
0.120646
0.120897
0.120991
0.122361
0.126437
0.0250238
0.0275251
0.0308811
0.0345306
0.0384842
0.0427499
0.0473338
0.0522376
0.0574551
0.0629675
0.0687398
0.0747166
0.0808202
0.0869518
0.0929927
0.098809
0.104259
0.109197
0.113485
0.116991
0.119596
0.1212
0.12173
0.121147
0.1195
0.117751
0.116582
0.115829
0.115372
0.115121
0.115016
0.115014
0.115084
0.115202
0.115347
0.115499
0.115649
0.115798
0.115953
0.116117
0.116305
0.11653
0.116812
0.11724
0.117485
0.117576
0.119087
0.123581
0.0247806
0.027199
0.0305156
0.0341212
0.0380252
0.0422341
0.0467522
0.0515792
0.0567068
0.0621147
0.0677662
0.0736053
0.0795547
0.0855165
0.0913752
0.0970018
0.102259
0.10701
0.111121
0.114465
0.116929
0.118414
0.118847
0.11819
0.116491
0.114707
0.113512
0.112741
0.112274
0.112017
0.111907
0.1119
0.111964
0.112076
0.112214
0.112356
0.112495
0.112631
0.112773
0.112924
0.113098
0.113311
0.113583
0.11401
0.114252
0.114342
0.116002
0.120927
0.0245322
0.0268653
0.0301421
0.033703
0.0375566
0.0417077
0.0461587
0.0509075
0.0559438
0.0612455
0.0667746
0.0724747
0.0782689
0.0840613
0.0897391
0.0951784
0.100249
0.104818
0.10876
0.111954
0.11429
0.115671
0.116025
0.115312
0.113579
0.111773
0.110563
0.109783
0.109312
0.109053
0.108941
0.108932
0.108994
0.109102
0.109235
0.10937
0.109498
0.109624
0.109753
0.109893
0.110056
0.110259
0.110523
0.110952
0.111193
0.111283
0.113098
0.118463
0.0242793
0.0265248
0.0297611
0.0332769
0.0370793
0.0411716
0.0455546
0.050224
0.0551677
0.0603619
0.0657674
0.0713275
0.0769661
0.0825896
0.0880887
0.0933441
0.0982317
0.102627
0.10641
0.109464
0.111685
0.112978
0.113269
0.112517
0.110766
0.108952
0.107735
0.106953
0.106482
0.106226
0.106116
0.106108
0.106169
0.106276
0.106405
0.106535
0.106655
0.106771
0.106891
0.10702
0.107175
0.10737
0.107628
0.10806
0.108301
0.108394
0.110368
0.116179
0.0240228
0.0261781
0.0293737
0.0328437
0.0365944
0.0406273
0.0449413
0.0495304
0.0543804
0.059466
0.064747
0.0701665
0.0756497
0.0811052
0.086428
0.0915041
0.0962151
0.100444
0.104076
0.107003
0.109122
0.110341
0.110584
0.109809
0.108054
0.106245
0.10503
0.104251
0.103785
0.103534
0.103429
0.103424
0.103486
0.103593
0.103722
0.103847
0.103961
0.104069
0.104181
0.104303
0.10445
0.104639
0.104893
0.105329
0.105572
0.105669
0.107806
0.114067
0.0237634
0.0258259
0.0289805
0.0324044
0.0361028
0.0400756
0.04432
0.0488279
0.0535835
0.0585598
0.0637159
0.0689947
0.074323
0.0796121
0.0847615
0.0896627
0.0942041
0.0982744
0.101766
0.104576
0.106606
0.107764
0.107974
0.10719
0.105446
0.103652
0.102446
0.101676
0.101218
0.100975
0.100877
0.100876
0.100941
0.101051
0.10118
0.101304
0.101413
0.101515
0.101621
0.101736
0.101878
0.102062
0.102314
0.102756
0.103001
0.103104
0.105408
0.112116
0.0235018
0.0254689
0.0285823
0.0319598
0.0356056
0.0395179
0.0436922
0.0481184
0.0527789
0.0576456
0.0626765
0.0678152
0.0729897
0.0781146
0.0830938
0.0878249
0.0922029
0.0961238
0.0994861
0.102191
0.104144
0.105254
0.105444
0.104665
0.102943
0.101174
0.0999837
0.0992258
0.0987796
0.0985464
0.0984569
0.0984623
0.0985325
0.0986463
0.0987781
0.0989015
0.099007
0.099105
0.099206
0.099317
0.0994552
0.0996365
0.099888
0.100337
0.100584
0.100696
0.103167
0.110317
0.0232388
0.0251078
0.0281799
0.0315108
0.0351037
0.0389553
0.043059
0.0474031
0.0519685
0.0567254
0.0616316
0.0666309
0.0716534
0.0766167
0.0814297
0.0859958
0.0902171
0.0939965
0.0972391
0.0998513
0.10174
0.102815
0.102998
0.102235
0.100547
0.0988126
0.097643
0.0969012
0.0964686
0.0962473
0.0961673
0.0961801
0.096256
0.0963752
0.0965116
0.0966365
0.0967406
0.0968359
0.0969341
0.0970423
0.0971785
0.0973583
0.0976105
0.098067
0.098318
0.09844
0.10108
0.108663
0.022975
0.0247432
0.0277741
0.0310583
0.0345981
0.0383887
0.0424218
0.0466838
0.0511539
0.0558014
0.0605836
0.0654451
0.0703177
0.0751227
0.0797739
0.0841807
0.0882521
0.091898
0.0950301
0.0975598
0.0993971
0.100451
0.100638
0.0999026
0.0982592
0.0965668
0.0954236
0.0947009
0.0942838
0.0940754
0.094006
0.0940268
0.0941094
0.0942354
0.0943781
0.0945063
0.0946106
0.094705
0.094802
0.0949092
0.0950449
0.0952245
0.0954787
0.0959438
0.0961988
0.0963339
0.0991422
0.107144
0.0227113
0.0243756
0.0273653
0.0306029
0.0340898
0.0378194
0.0417819
0.0459619
0.0503372
0.0548759
0.0595353
0.0642607
0.0689862
0.0736368
0.078131
0.0823846
0.0863132
0.0898337
0.0928641
0.0953208
0.0971171
0.0981619
0.0983678
0.0976703
0.0960798
0.094437
0.0933249
0.0926241
0.0922239
0.0920293
0.0919708
0.0920003
0.0920902
0.092224
0.0923747
0.092508
0.0926143
0.0927097
0.0928072
0.092915
0.0930515
0.0932323
0.0934896
0.0939643
0.0942235
0.0943746
0.0973509
0.105752
0.0224482
0.0240057
0.0269545
0.0301456
0.0335796
0.0372484
0.0411405
0.0452389
0.04952
0.053951
0.0584892
0.0630809
0.0676626
0.0721629
0.0765056
0.0806123
0.0844055
0.0878087
0.090746
0.0931388
0.0949033
0.095949
0.0961852
0.0955395
0.0940099
0.0924233
0.0913463
0.0906698
0.0902877
0.0901074
0.0900602
0.0900984
0.0901961
0.0903388
0.0904991
0.0906394
0.0907495
0.0908475
0.0909473
0.0910572
0.091196
0.0913793
0.0916408
0.0921257
0.0923892
0.0925602
0.0957025
0.10448
0.0221866
0.023634
0.0265422
0.0296869
0.0330683
0.0366768
0.0404989
0.0445164
0.0487042
0.053029
0.057448
0.0619088
0.0663504
0.0707052
0.074902
0.0788686
0.0825338
0.0858277
0.0886803
0.0910177
0.092759
0.0938142
0.0940902
0.0935074
0.0920499
0.0905253
0.0894872
0.0888371
0.0884741
0.0883083
0.0882724
0.0883193
0.088425
0.0885773
0.0887488
0.0888979
0.0890137
0.0891164
0.0892201
0.0893337
0.0894761
0.0896629
0.0899299
0.0904258
0.0906933
0.0908885
0.0941949
0.10332
0.0219269
0.0232611
0.0261289
0.0292277
0.0325569
0.0361054
0.0398583
0.0437957
0.0478915
0.0521119
0.0564141
0.0607473
0.065053
0.0692675
0.0733246
0.0771579
0.0807026
0.0838951
0.0866711
0.0889611
0.0906872
0.0917598
0.0920833
0.0915726
0.0902001
0.0887426
0.0877467
0.0871249
0.0867818
0.0866306
0.0866058
0.0866614
0.086775
0.0869376
0.0871219
0.0872817
0.0874052
0.0875143
0.0876237
0.0877424
0.0878898
0.0880813
0.0883549
0.0888621
0.0891334
0.089357
0.0928242
0.102266
0.02167
0.0228875
0.0257154
0.0287687
0.0320461
0.0355353
0.0392197
0.0430783
0.0470838
0.0512018
0.0553902
0.0595995
0.0637738
0.0678535
0.0717773
0.0754844
0.0789162
0.082015
0.084722
0.0869722
0.0886903
0.0897874
0.0901654
0.0897337
0.088454
0.0870746
0.086124
0.0855322
0.0852096
0.0850732
0.0850592
0.0851231
0.0852445
0.0854179
0.0856163
0.085789
0.0859222
0.0860398
0.0861565
0.086282
0.0864356
0.0866329
0.0869146
0.0874333
0.0877078
0.0879652
0.0915898
0.101312
0.0214165
0.0225135
0.025302
0.0283103
0.0315367
0.0349673
0.0385844
0.0423656
0.0462826
0.0503008
0.0543786
0.0584681
0.0625161
0.0664668
0.0702638
0.0738519
0.0771783
0.080191
0.0828364
0.0850538
0.0867705
0.0878984
0.0883371
0.0879906
0.0868109
0.0855206
0.084618
0.0840578
0.0837564
0.0836346
0.0836311
0.0837031
0.083832
0.0840164
0.0842305
0.084418
0.0845632
0.0846913
0.0848171
0.0849507
0.0851118
0.0853159
0.085607
0.0861373
0.0864145
0.0867111
0.0904886
0.100451
0.0211668
0.0221397
0.0248894
0.0278532
0.0310293
0.0344024
0.0379534
0.0416588
0.0454896
0.0494108
0.0533816
0.0573557
0.0612827
0.0651107
0.0687877
0.0722641
0.0754925
0.0784264
0.0810171
0.0832081
0.0849295
0.0860937
0.0865987
0.0863429
0.085269
0.0840759
0.0832277
0.0827006
0.0824209
0.0823137
0.0823204
0.0824
0.0825361
0.0827317
0.0829627
0.0831672
0.0833266
0.0834672
0.0836039
0.083747
0.0839168
0.0841287
0.0844304
0.0849722
0.0852516
0.0855918
0.0895172
0.0996781
0.0209218
0.0217665
0.024478
0.027398
0.0305246
0.0338413
0.0373277
0.0409592
0.0447062
0.0485337
0.0524015
0.0562649
0.0600766
0.0637881
0.0673522
0.0707241
0.0738618
0.076724
0.0792667
0.0814372
0.0831686
0.0843742
0.0849503
0.08479
0.0838269
0.0827356
0.0819522
0.0814594
0.081202
0.0811095
0.0811261
0.0812129
0.0813558
0.0815625
0.0818116
0.0820353
0.0822113
0.0823664
0.0825157
0.0826699
0.0828493
0.08307
0.0833833
0.0839366
0.0842175
0.0846059
0.0886703
0.0989888
0.020682
0.0213942
0.0240682
0.0269452
0.0300232
0.0332847
0.0367082
0.040268
0.043934
0.0476712
0.0514401
0.0551981
0.0589003
0.0625019
0.06596
0.0692348
0.072289
0.0750863
0.0775871
0.0797427
0.0814889
0.0827403
0.0833917
0.0833314
0.0824834
0.0814982
0.0807887
0.0803333
0.0800987
0.0800208
0.0800471
0.0801409
0.0802902
0.0805077
0.0807761
0.0810212
0.0812162
0.0813882
0.0815518
0.0817183
0.0819084
0.0821388
0.0824647
0.0830295
0.0833117
0.0837515
0.0879466
0.0983813
0.0204478
0.0210232
0.0236605
0.0264952
0.0295256
0.0327334
0.0360958
0.0395863
0.0431742
0.0468248
0.0504996
0.0541574
0.0577562
0.0612546
0.0646139
0.0677986
0.0707764
0.0735153
0.0759801
0.0781259
0.0798912
0.0811922
0.0819226
0.0819661
0.0812375
0.0803609
0.0797295
0.0793214
0.0791101
0.0790468
0.0790827
0.0791835
0.0793388
0.0795669
0.0798552
0.080124
0.0803408
0.0805318
0.0807115
0.0808916
0.0810933
0.0813344
0.0816738
0.08225
0.0825331
0.0830274
0.0873412
0.0978536
0.02022
0.0206538
0.0232551
0.0260484
0.0290325
0.0321879
0.0354912
0.0389149
0.0424281
0.0459961
0.0495814
0.0531447
0.0566464
0.0600484
0.063316
0.0664179
0.0693259
0.0720127
0.0744471
0.0765876
0.0783759
0.0797297
0.0805423
0.0806931
0.0800878
0.0793223
0.0787734
0.0784229
0.0782355
0.078187
0.0782324
0.07834
0.0785012
0.0787395
0.0790485
0.0793432
0.0795844
0.0797967
0.0799943
0.0801894
0.0804037
0.0806561
0.0810097
0.0815969
0.0818809
0.0824326
0.0868538
0.0974047
0.019999
0.0202863
0.0228523
0.0256052
0.0285441
0.0316489
0.0348951
0.0382548
0.0416967
0.0451864
0.0486873
0.0521617
0.0555727
0.0588853
0.0620682
0.0650942
0.0679393
0.07058
0.072989
0.0751285
0.0769432
0.0783528
0.0792504
0.0795116
0.0790332
0.0783811
0.077917
0.0776283
0.0774744
0.0774408
0.0774957
0.0776104
0.0777775
0.0780253
0.0783556
0.0786783
0.0789468
0.0791827
0.0794
0.0796114
0.079839
0.0801036
0.0804718
0.0810686
0.0813532
0.0819654
0.0864827
0.0970354
0.0197854
0.019921
0.0224526
0.0251659
0.0280608
0.0311167
0.0343081
0.0376067
0.040981
0.0443967
0.0478184
0.05121
0.0545367
0.0577667
0.060872
0.0638291
0.0666176
0.069218
0.0716065
0.073749
0.0755931
0.0770609
0.0780458
0.0784203
0.0780723
0.077536
0.077159
0.0769366
0.0768266
0.076808
0.0768725
0.0769946
0.0771677
0.0774247
0.0777762
0.0781291
0.0784276
0.0786896
0.0789285
0.0791575
0.0793993
0.0796764
0.0800595
0.0806646
0.0809498
0.0816252
0.0862235
0.0967349
0.0195796
0.0195581
0.0220561
0.0247308
0.0275831
0.0305918
0.0337308
0.0369714
0.0402817
0.0436281
0.0469759
0.0502906
0.0535397
0.056694
0.0597287
0.0626236
0.0653619
0.0679275
0.0703001
0.0724491
0.0743254
0.0758536
0.0769278
0.077418
0.0772039
0.0767859
0.0764983
0.0763448
0.0762843
0.0762887
0.0763629
0.0764927
0.0766724
0.076938
0.0773105
0.0776954
0.0780269
0.0783175
0.07858
0.0788278
0.0790844
0.0793745
0.0797726
0.080384
0.0806703
0.0814109
0.0860718
0.0964967
0.0193822
0.0191978
0.021663
0.0243001
0.0271112
0.0300745
0.0331636
0.0363492
0.0395996
0.0428813
0.0461606
0.0494046
0.0525826
0.0556681
0.0586391
0.0614785
0.0641726
0.0667087
0.0690698
0.0712287
0.0731397
0.0747301
0.0758953
0.0765036
0.0764266
0.0761293
0.0759338
0.0758517
0.0758457
0.0758833
0.0759673
0.0761052
0.076292
0.0765661
0.0769591
0.0773776
0.0777449
0.0780666
0.0783547
0.0786226
0.0788947
0.0791981
0.0796109
0.0802271
0.0805153
0.081322
0.0860299
0.0963213
0.0191935
0.0188403
0.0212735
0.023874
0.0266452
0.029565
0.0326067
0.0357407
0.0389351
0.0421569
0.0453733
0.0485526
0.0516663
0.0546898
0.0576039
0.0603942
0.0630501
0.0655617
0.0679155
0.0700875
0.0720354
0.0736895
0.0749474
0.0756758
0.0757392
0.0755652
0.0754644
0.0754564
0.0755089
0.0755877
0.0756865
0.0758327
0.0760275
0.0763099
0.0767226
0.0771759
0.0775819
0.0779373
0.078253
0.0785422
0.0788305
0.0791475
0.0795744
0.0801931
0.0804835
0.0813579
0.0860913
0.0962036
0.0190141
0.0184858
0.0208878
0.0234527
0.0261853
0.0290636
0.0320605
0.035146
0.0382885
0.0414553
0.0446143
0.0477352
0.0507909
0.0537593
0.0566232
0.0593709
0.0619943
0.0644864
0.0668368
0.0690248
0.0710117
0.0727312
0.074083
0.0749334
0.0751404
0.0750924
0.0750893
0.0751582
0.0752722
0.0753976
0.0755214
0.0756764
0.07588
0.0761708
0.076602
0.077091
0.0775383
0.0779302
0.0782756
0.0785876
0.0788926
0.0792234
0.0796638
0.0802831
0.0805768
0.0815183
0.0862603
0.0961475
0.0188443
0.0181343
0.020506
0.0230362
0.0257316
0.0285703
0.0315249
0.0345654
0.03766
0.0407767
0.0438838
0.0469524
0.0499569
0.0528767
0.0556971
0.0584083
0.0610048
0.0634823
0.0658332
0.0680401
0.0700679
0.071854
0.0733009
0.0742751
0.0746289
0.0747098
0.0748075
0.0749565
0.0751352
0.0753136
0.0754736
0.0756373
0.0758507
0.0761504
0.0765987
0.0771238
0.0776148
0.0780459
0.0784234
0.0787595
0.0790819
0.0794266
0.0798794
0.0804973
0.0807948
0.0818034
0.0865313
0.0961504
0.0186846
0.0177861
0.0201282
0.0226246
0.0252843
0.0280852
0.0310001
0.0339988
0.0370497
0.040121
0.0431819
0.0462042
0.0491638
0.0520418
0.054825
0.0575059
0.0600811
0.0625487
0.0649038
0.0671324
0.0692029
0.0710569
0.0726
0.0736997
0.0742034
0.0744163
0.0746182
0.0748508
0.0750977
0.0753327
0.0755351
0.0757172
0.075941
0.0762504
0.0767144
0.0772753
0.0778122
0.0782853
0.0786974
0.0790592
0.0793997
0.0797584
0.0802227
0.0808373
0.0811398
0.0822135
0.0869116
0.0962245
0.0185353
0.0174413
0.0197544
0.0222181
0.0248432
0.0276083
0.0304859
0.0334461
0.0364573
0.039488
0.0425081
0.0454903
0.0484114
0.051254
0.0540065
0.0566631
0.0592223
0.0616846
0.0640477
0.0663007
0.0684159
0.0703388
0.0719792
0.073206
0.0738628
0.0742109
0.0745207
0.0748406
0.0751594
0.075455
0.0757066
0.0759179
0.0761527
0.0764728
0.076951
0.0775471
0.0781316
0.0786497
0.079099
0.0794884
0.0798479
0.0802207
0.0806954
0.081305
0.0816124
0.0827476
0.0873968
0.0963822
0.0183967
0.0170999
0.0193847
0.0218165
0.0244083
0.0271394
0.0299823
0.0329071
0.0358826
0.0388775
0.0418622
0.04481
0.047699
0.0505126
0.0532406
0.0558787
0.0584274
0.0608889
0.0632637
0.0655437
0.0677054
0.0696985
0.0714371
0.0727927
0.0736056
0.0740924
0.074514
0.0749253
0.0753203
0.0756807
0.0759887
0.076241
0.0764876
0.0768195
0.0773108
0.0779407
0.0785744
0.0791404
0.0796299
0.080049
0.0804289
0.0808165
0.0813014
0.0819064
0.0822188
0.0834061
0.087993
0.0966386
0.0182693
0.016762
0.0190191
0.0214199
0.0239796
0.0266783
0.0294889
0.0323815
0.0353251
0.0382888
0.0412433
0.0441627
0.0470255
0.0498164
0.0525261
0.0551517
0.0576949
0.0601603
0.0625503
0.0648603
0.0670703
0.0691349
0.0709726
0.0724584
0.0734308
0.0740598
0.0745975
0.0751046
0.0755801
0.0760098
0.0763789
0.0766792
0.076948
0.0772927
0.0777963
0.0784583
0.079142
0.0797589
0.0802919
0.0807436
0.0811456
0.081549
0.0820444
0.082646
0.0829633
0.0841926
0.0887038
0.0970116
0.0181531
0.0164277
0.0186577
0.0210281
0.023557
0.026225
0.0290054
0.0318688
0.0347843
0.0377212
0.0406507
0.0435472
0.0463899
0.0491642
0.0518616
0.0544803
0.0570234
0.0594971
0.0619062
0.0642489
0.0665092
0.0686464
0.0705844
0.072202
0.0733369
0.0741121
0.0747703
0.0753778
0.0759385
0.0764424
0.0768775
0.0772335
0.0775359
0.0778945
0.0784102
0.079102
0.0798361
0.080507
0.0810874
0.0815748
0.0820014
0.0824222
0.0829292
0.0835294
0.0838509
0.0851105
0.0895363
0.097524
0.0180486
0.0160971
0.0183003
0.0206413
0.0231402
0.025779
0.0285316
0.0313685
0.0342594
0.0371738
0.0400832
0.0429623
0.0457907
0.0485543
0.0512453
0.0538628
0.056411
0.0588975
0.0613294
0.0637077
0.0660205
0.0682317
0.070271
0.072022
0.0733226
0.0742479
0.0750315
0.0757444
0.0763955
0.0769785
0.0774847
0.0779049
0.0782541
0.0786272
0.0791554
0.0798744
0.0806589
0.0813867
0.0820185
0.082546
0.0830005
0.083441
0.0839616
0.0845639
0.0848885
0.086164
0.0904984
0.0982012
0.017956
0.0157702
0.0179471
0.0202592
0.0227291
0.0253402
0.0280668
0.03088
0.0337497
0.0366456
0.0395396
0.0424064
0.0452262
0.0479849
0.0506754
0.0532973
0.0558557
0.0583596
0.0608181
0.0632351
0.0656024
0.0678893
0.070031
0.0719169
0.0733864
0.0744661
0.0753801
0.0762038
0.0769505
0.077618
0.0782006
0.0786917
0.0790972
0.0794928
0.0800345
0.0807782
0.0816123
0.0823999
0.0830879
0.0836604
0.0841473
0.0846109
0.0851484
0.0857581
0.0860842
0.0873597
0.0915997
0.0990657
0.0178754
0.0154471
0.0175979
0.0198818
0.0223236
0.0249082
0.0276106
0.0304025
0.0332541
0.0361355
0.0390184
0.0418781
0.0446946
0.0474541
0.0501497
0.0527814
0.0553552
0.0578811
0.0603701
0.0628289
0.0652531
0.0676172
0.0698628
0.0718852
0.0735269
0.0747652
0.0758149
0.076755
0.0776032
0.0783607
0.0790253
0.0795927
0.080063
0.0804938
0.0810503
0.0818164
0.0826987
0.0835486
0.0842979
0.0849215
0.0854463
0.0859377
0.0864968
0.0871211
0.0874475
0.0887065
0.0928516
0.100139
0.0178071
0.0151277
0.0172527
0.0195089
0.0219234
0.0244827
0.0271626
0.0299354
0.0327718
0.035642
0.0385182
0.0413754
0.0441938
0.0469595
0.0496657
0.0523126
0.0549068
0.0574594
0.059983
0.0624869
0.0649706
0.0674138
0.0697645
0.0719252
0.0737421
0.0751436
0.0763346
0.0773971
0.0783526
0.0792061
0.0799585
0.0806081
0.0811523
0.0816322
0.0822051
0.0829918
0.0839204
0.0848347
0.0856506
0.0863324
0.086902
0.0874271
0.088014
0.0886619
0.0889888
0.0902154
0.094266
0.101433
0.0177511
0.0148123
0.0169115
0.0191406
0.0215282
0.0240632
0.026722
0.0294778
0.0323015
0.035164
0.0380372
0.0408964
0.0437216
0.0464987
0.0492208
0.0518883
0.054508
0.0570919
0.0596541
0.0622065
0.0647524
0.0672767
0.0697343
0.072035
0.0740303
0.0755996
0.0769377
0.0781289
0.0791981
0.0801537
0.0809998
0.0817373
0.082365
0.082909
0.0835009
0.0843071
0.0852795
0.0862597
0.0871475
0.0878953
0.088518
0.0890841
0.0897061
0.0903881
0.0907175
0.0918986
0.0958552
0.102955
0.0177076
0.0145009
0.0165742
0.0187766
0.021138
0.0236493
0.0262883
0.0290288
0.0318423
0.0346999
0.0375737
0.040439
0.0432755
0.0460689
0.0488121
0.0515053
0.0541555
0.0567754
0.0593806
0.0619852
0.0645961
0.0672037
0.0697698
0.0722124
0.0743892
0.0761311
0.0776223
0.0789486
0.0801381
0.0812023
0.0821483
0.0829797
0.0836976
0.0843157
0.0849394
0.0857646
0.086778
0.0878249
0.0887896
0.0896118
0.090297
0.0909125
0.0915781
0.0923057
0.092642
0.0937686
0.0976311
0.104704
0.0176767
0.0141934
0.0162408
0.0184168
0.0207524
0.0232408
0.025861
0.0285876
0.0313928
0.0342482
0.0371259
0.040001
0.0428531
0.0456675
0.0484367
0.0511606
0.0538463
0.0565069
0.0591593
0.0618197
0.0644988
0.0671921
0.0698686
0.072455
0.0748164
0.0767357
0.0783863
0.0798546
0.0811713
0.0823507
0.083403
0.0843345
0.0851484
0.0858507
0.0865221
0.0873664
0.0884178
0.0895308
0.0905769
0.091482
0.09224
0.0929148
0.0936329
0.0944181
0.0947683
0.0958361
0.0996021
0.10667
0.0176583
0.01389
0.0159112
0.0180612
0.0203712
0.0228373
0.0254395
0.0281534
0.0309521
0.0338073
0.0366917
0.0395801
0.0424517
0.0452914
0.0480913
0.0508507
0.0535767
0.0562828
0.0589866
0.0617068
0.0644574
0.067239
0.070028
0.0727602
0.0753093
0.0774108
0.079227
0.0808444
0.0822955
0.0835972
0.0847623
0.0858002
0.0867162
0.0875138
0.0882503
0.0891139
0.0902001
0.0913776
0.0925082
0.0935044
0.0943464
0.095091
0.0958713
0.0967258
0.0971004
0.0981104
0.101774
0.108828
0.0176526
0.0135908
0.0155853
0.0177095
0.0199942
0.0224382
0.025023
0.0277253
0.0305187
0.0333758
0.0362693
0.0391739
0.0420685
0.0449376
0.0477725
0.0505721
0.0533432
0.0560992
0.0588591
0.061643
0.0644684
0.0673411
0.0702448
0.0731248
0.0758646
0.0781533
0.0801417
0.0819154
0.0835084
0.0849396
0.0862244
0.0873751
0.0883993
0.0893017
0.0901184
0.091008
0.0921259
0.0933648
0.0945817
0.0956761
0.0966129
0.0974389
0.0982908
0.0992258
0.0996373
0.100597
0.104148
0.111158
0.0176595
0.0132959
0.0152632
0.0173619
0.0196213
0.0220434
0.0246112
0.0273024
0.0300917
0.0329522
0.0358567
0.0387801
0.0417009
0.0446029
0.0474769
0.050321
0.0531417
0.0559524
0.0587725
0.0616243
0.0645281
0.0674948
0.0705156
0.0735456
0.0764789
0.0789596
0.0811268
0.0830643
0.0848069
0.0863751
0.0877868
0.0890568
0.0901955
0.0912094
0.0921186
0.0930496
0.094196
0.095492
0.0967946
0.0979927
0.0990349
0.0999542
0.100887
0.101913
0.102376
0.103296
0.106724
0.113642
0.0176789
0.0130052
0.0149446
0.017018
0.0192522
0.0216525
0.0242034
0.026884
0.0296699
0.0325348
0.035452
0.0383963
0.0413459
0.0442841
0.0472008
0.0500936
0.0529682
0.055838
0.0587229
0.0616465
0.0646324
0.0676963
0.0708367
0.0740189
0.0771484
0.079826
0.0821786
0.0842874
0.0861875
0.0879006
0.0894465
0.0908426
0.0921021
0.0932338
0.0942479
0.0952396
0.0964115
0.0977592
0.099145
0.10045
0.101607
0.102631
0.103655
0.104782
0.105313
0.106207
0.109497
0.11628
0.0177108
0.0127191
0.0146297
0.0166779
0.0188868
0.0212652
0.0237993
0.0264694
0.0292522
0.0321223
0.0350533
0.0380203
0.0410009
0.043978
0.0469408
0.049886
0.0528185
0.0557516
0.0587055
0.0617052
0.0647769
0.0679411
0.0712037
0.0745403
0.0778687
0.0807479
0.0832925
0.0855804
0.0876462
0.089512
0.0911997
0.0927289
0.0941157
0.0953712
0.0965038
0.0975772
0.0987739
0.100167
0.101632
0.103044
0.104324
0.105465
0.106591
0.107831
0.108447
0.109325
0.112465
0.119082
0.0177551
0.0124376
0.0143182
0.0163415
0.018525
0.0208812
0.0233982
0.0260577
0.0288376
0.0317133
0.034659
0.0376497
0.0406631
0.0436815
0.0466931
0.049694
0.0526884
0.0556889
0.0587159
0.0617957
0.064957
0.0682248
0.0716122
0.0751054
0.0786351
0.0817204
0.0844636
0.0869384
0.089178
0.0912049
0.093042
0.0947115
0.0962322
0.0976177
0.0988777
0.10005
0.101285
0.102719
0.104256
0.105775
0.107182
0.108453
0.109692
0.111059
0.111778
0.112651
0.115627
0.122066
0.0178116
0.0121607
0.0140103
0.0160088
0.0181666
0.0205004
0.0229999
0.0256485
0.0284253
0.0313065
0.0342671
0.0372824
0.0403299
0.0433913
0.0464542
0.0495138
0.0525733
0.055645
0.0587492
0.061913
0.0651676
0.0685423
0.0720573
0.0757091
0.0794423
0.0827382
0.0856864
0.0883556
0.0907774
0.0929736
0.0949682
0.0967853
0.0984465
0.0999683
0.101363
0.10265
0.103945
0.105416
0.10702
0.108641
0.11018
0.11159
0.112956
0.114466
0.115312
0.116189
0.118991
0.12524
0.0178801
0.0118888
0.0137058
0.0156796
0.0178115
0.0201224
0.0226041
0.0252412
0.0280143
0.0309008
0.0338763
0.0369164
0.0399987
0.0431045
0.0462206
0.0493413
0.052469
0.0556153
0.0588003
0.062052
0.0654035
0.0688884
0.0725336
0.0763461
0.0802846
0.0837951
0.0869544
0.0898258
0.092438
0.0948121
0.0969722
0.0989444
0.100753
0.102417
0.103951
0.105371
0.106753
0.108258
0.109923
0.111641
0.113312
0.114872
0.116375
0.118046
0.119045
0.119942
0.122566
0.12861
0.0179605
0.011622
0.0134046
0.0153539
0.0174597
0.0197472
0.0222103
0.0248353
0.0276041
0.0304951
0.033485
0.0365499
0.0396672
0.0428181
0.0459888
0.0491725
0.052371
0.0555949
0.0588642
0.0622073
0.0656592
0.0692574
0.0730353
0.0770104
0.0811557
0.0848844
0.0882608
0.0913417
0.0941526
0.0967129
0.0990469
0.101182
0.103144
0.104957
0.106638
0.1082
0.109691
0.111247
0.112966
0.114775
0.116575
0.118289
0.119941
0.121787
0.122968
0.123906
0.126353
0.132182
0.0180526
0.0113604
0.0131069
0.0150317
0.0171111
0.0193747
0.0218184
0.0244304
0.0271938
0.0300885
0.033092
0.036181
0.0393332
0.0425294
0.0457554
0.0490037
0.0522749
0.055579
0.0589355
0.0623732
0.0659288
0.0696433
0.0735563
0.0776956
0.0820487
0.085999
0.0895978
0.0928953
0.095913
0.0986681
0.101184
0.10349
0.105613
0.107581
0.109413
0.111126
0.112748
0.114379
0.116148
0.11804
0.119963
0.121836
0.123645
0.125677
0.127073
0.128074
0.130351
0.135954
0.0181561
0.0111043
0.0128124
0.014713
0.0167657
0.0190046
0.0214282
0.0240261
0.026783
0.0296802
0.0326961
0.0358082
0.0389945
0.0422358
0.0455174
0.048831
0.0521764
0.0555627
0.059009
0.0625442
0.0662064
0.0700397
0.07409
0.0783947
0.0829562
0.0871308
0.090957
0.0944777