/*--------------------------------*- C++ -*----------------------------------*\
  =========                 |
  \\      /  F ield         | OpenFOAM: The Open Source CFD Toolbox
   \\    /   O peration     | Website:  https://openfoam.org
    \\  /    A nd           | Version:  10
     \\/     M anipulation  |
\*---------------------------------------------------------------------------*/
FoamFile
{
    format      ascii;
    class       volScalarField;
    location    "10";
    object      nut;
}
// * * * * * * * * * * * * * * * * * * * * * * * * * * * * * * * * * * * * * //

dimensions      [0 2 -1 0 0 0 0];

internalField   nonuniform List<scalar> 
38016
(
8.38718e-05
8.26118e-05
7.93201e-05
7.60517e-05
7.28685e-05
6.98235e-05
6.69618e-05
6.43182e-05
6.19165e-05
5.97691e-05
5.78785e-05
5.62386e-05
5.48364e-05
5.36542e-05
5.26716e-05
5.18665e-05
5.12174e-05
5.07037e-05
5.03071e-05
5.00119e-05
4.98055e-05
4.96787e-05
4.9625e-05
4.96409e-05
4.97221e-05
4.98124e-05
4.98719e-05
4.99089e-05
4.99304e-05
4.99412e-05
4.99448e-05
4.99435e-05
4.99386e-05
4.99316e-05
4.99231e-05
4.99139e-05
4.99045e-05
4.98956e-05
4.98877e-05
4.98817e-05
4.98783e-05
4.98791e-05
4.98856e-05
4.98996e-05
4.99099e-05
4.99062e-05
4.99197e-05
4.99777e-05
8.38043e-05
8.28565e-05
7.95811e-05
7.63239e-05
7.31474e-05
7.0105e-05
6.72422e-05
6.45946e-05
6.21865e-05
6.00313e-05
5.81318e-05
5.64824e-05
5.50708e-05
5.38794e-05
5.28879e-05
5.20747e-05
5.14182e-05
5.0898e-05
5.0496e-05
5.01968e-05
4.99881e-05
4.98611e-05
4.981e-05
4.98319e-05
4.99228e-05
5.00234e-05
5.00902e-05
5.01322e-05
5.01569e-05
5.01695e-05
5.01738e-05
5.01724e-05
5.01668e-05
5.01587e-05
5.01489e-05
5.01383e-05
5.01275e-05
5.01172e-05
5.01081e-05
5.0101e-05
5.0097e-05
5.00976e-05
5.01048e-05
5.01203e-05
5.01309e-05
5.01275e-05
5.01494e-05
5.02278e-05
8.37345e-05
8.31123e-05
7.98539e-05
7.66079e-05
7.34383e-05
7.03986e-05
6.75349e-05
6.48833e-05
6.24689e-05
6.03057e-05
5.83972e-05
5.67384e-05
5.53171e-05
5.41162e-05
5.31157e-05
5.2294e-05
5.16297e-05
5.11027e-05
5.06949e-05
5.03913e-05
5.01801e-05
5.00527e-05
5.0004e-05
5.00318e-05
5.01326e-05
5.02434e-05
5.03177e-05
5.03647e-05
5.03925e-05
5.04068e-05
5.04118e-05
5.04102e-05
5.0404e-05
5.03948e-05
5.03838e-05
5.0372e-05
5.03601e-05
5.03488e-05
5.0339e-05
5.03314e-05
5.03274e-05
5.03286e-05
5.03371e-05
5.03551e-05
5.03666e-05
5.03639e-05
5.03953e-05
5.04957e-05
8.36605e-05
8.33789e-05
8.01378e-05
7.69034e-05
7.37409e-05
7.07041e-05
6.78396e-05
6.51842e-05
6.27636e-05
6.05925e-05
5.8675e-05
5.70066e-05
5.55755e-05
5.4365e-05
5.33552e-05
5.25247e-05
5.18523e-05
5.13181e-05
5.09042e-05
5.05959e-05
5.03816e-05
5.02535e-05
5.02069e-05
5.02405e-05
5.03511e-05
5.04722e-05
5.05539e-05
5.06059e-05
5.06367e-05
5.06526e-05
5.06582e-05
5.06566e-05
5.06499e-05
5.064e-05
5.06281e-05
5.06155e-05
5.06027e-05
5.05908e-05
5.05805e-05
5.05728e-05
5.05691e-05
5.05711e-05
5.05815e-05
5.06025e-05
5.0615e-05
5.06126e-05
5.06555e-05
5.07837e-05
8.35804e-05
8.36557e-05
8.04326e-05
7.72101e-05
7.4055e-05
7.10213e-05
6.81562e-05
6.54971e-05
6.30705e-05
6.08916e-05
5.89652e-05
5.72871e-05
5.58462e-05
5.46259e-05
5.36065e-05
5.2767e-05
5.20862e-05
5.15443e-05
5.1124e-05
5.08104e-05
5.05928e-05
5.04635e-05
5.04188e-05
5.04578e-05
5.0578e-05
5.07093e-05
5.07983e-05
5.08551e-05
5.08888e-05
5.09063e-05
5.09124e-05
5.09107e-05
5.09036e-05
5.0893e-05
5.08804e-05
5.0867e-05
5.08535e-05
5.0841e-05
5.08304e-05
5.08227e-05
5.08194e-05
5.08225e-05
5.08347e-05
5.08588e-05
5.08713e-05
5.08676e-05
5.09238e-05
5.10884e-05
8.3492e-05
8.39424e-05
8.07378e-05
7.75276e-05
7.43802e-05
7.135e-05
6.84846e-05
6.58221e-05
6.33897e-05
6.12031e-05
5.92679e-05
5.75802e-05
5.61294e-05
5.48991e-05
5.387e-05
5.30211e-05
5.23316e-05
5.17817e-05
5.13544e-05
5.10352e-05
5.08137e-05
5.06828e-05
5.06395e-05
5.06836e-05
5.08132e-05
5.09544e-05
5.10505e-05
5.1112e-05
5.11484e-05
5.11672e-05
5.11738e-05
5.1172e-05
5.11643e-05
5.11531e-05
5.11398e-05
5.11257e-05
5.11115e-05
5.10985e-05
5.10876e-05
5.108e-05
5.10772e-05
5.10813e-05
5.10951e-05
5.1122e-05
5.11338e-05
5.1128e-05
5.12e-05
5.14114e-05
8.33934e-05
8.42384e-05
8.10531e-05
7.78555e-05
7.47162e-05
7.16899e-05
6.88246e-05
6.6159e-05
6.37209e-05
6.1527e-05
5.95831e-05
5.78859e-05
5.64252e-05
5.51848e-05
5.41458e-05
5.32873e-05
5.25886e-05
5.20304e-05
5.15956e-05
5.12703e-05
5.10443e-05
5.09114e-05
5.08688e-05
5.09176e-05
5.10561e-05
5.12069e-05
5.13099e-05
5.13758e-05
5.14147e-05
5.14347e-05
5.14415e-05
5.14395e-05
5.14314e-05
5.14195e-05
5.14054e-05
5.13906e-05
5.13758e-05
5.13623e-05
5.13512e-05
5.13436e-05
5.13413e-05
5.13463e-05
5.13615e-05
5.13913e-05
5.14023e-05
5.13942e-05
5.14852e-05
5.17541e-05
8.32825e-05
8.45434e-05
8.1378e-05
7.81935e-05
7.50627e-05
7.20406e-05
6.91758e-05
6.65075e-05
6.40642e-05
6.18632e-05
5.99107e-05
5.82042e-05
5.67336e-05
5.54831e-05
5.4434e-05
5.35656e-05
5.28575e-05
5.22904e-05
5.18477e-05
5.15157e-05
5.12847e-05
5.1149e-05
5.11066e-05
5.11594e-05
5.13062e-05
5.14662e-05
5.15757e-05
5.16458e-05
5.16869e-05
5.17077e-05
5.17147e-05
5.17123e-05
5.17036e-05
5.1691e-05
5.16762e-05
5.16607e-05
5.16453e-05
5.16313e-05
5.162e-05
5.16125e-05
5.16107e-05
5.16165e-05
5.16329e-05
5.16658e-05
5.16762e-05
5.16661e-05
5.17796e-05
5.2117e-05
8.31572e-05
8.48568e-05
8.17121e-05
7.85411e-05
7.54193e-05
7.24019e-05
6.9538e-05
6.68674e-05
6.44193e-05
6.22115e-05
6.02509e-05
5.85352e-05
5.70547e-05
5.57941e-05
5.47346e-05
5.38561e-05
5.31382e-05
5.25618e-05
5.21107e-05
5.17715e-05
5.15348e-05
5.13955e-05
5.13526e-05
5.14085e-05
5.1563e-05
5.17315e-05
5.18471e-05
5.19208e-05
5.19638e-05
5.19853e-05
5.19922e-05
5.19893e-05
5.19799e-05
5.19666e-05
5.19511e-05
5.19348e-05
5.19188e-05
5.19044e-05
5.18928e-05
5.18853e-05
5.18839e-05
5.18905e-05
5.1908e-05
5.19442e-05
5.19545e-05
5.19428e-05
5.20822e-05
5.24999e-05
8.30153e-05
8.5178e-05
8.20549e-05
7.88979e-05
7.57855e-05
7.27734e-05
6.99109e-05
6.72386e-05
6.47861e-05
6.25718e-05
6.06033e-05
5.88786e-05
5.73884e-05
5.61176e-05
5.50478e-05
5.41588e-05
5.34307e-05
5.28447e-05
5.23845e-05
5.20374e-05
5.17943e-05
5.16507e-05
5.16063e-05
5.16644e-05
5.18257e-05
5.20018e-05
5.21229e-05
5.21999e-05
5.22444e-05
5.22661e-05
5.22727e-05
5.22692e-05
5.2259e-05
5.22449e-05
5.22287e-05
5.22117e-05
5.2195e-05
5.218e-05
5.21682e-05
5.21607e-05
5.21595e-05
5.21667e-05
5.21853e-05
5.22253e-05
5.22359e-05
5.22229e-05
5.23922e-05
5.29022e-05
8.28548e-05
8.55067e-05
8.2406e-05
7.92634e-05
7.6161e-05
7.31546e-05
7.02942e-05
6.76206e-05
6.51642e-05
6.29439e-05
6.09679e-05
5.92345e-05
5.77346e-05
5.64536e-05
5.53733e-05
5.44737e-05
5.37351e-05
5.31388e-05
5.26691e-05
5.23133e-05
5.2063e-05
5.19141e-05
5.18672e-05
5.19265e-05
5.20934e-05
5.22762e-05
5.24021e-05
5.24817e-05
5.25272e-05
5.25489e-05
5.25549e-05
5.25506e-05
5.25397e-05
5.25247e-05
5.25076e-05
5.24898e-05
5.24724e-05
5.24568e-05
5.24446e-05
5.2437e-05
5.24359e-05
5.24437e-05
5.24633e-05
5.25074e-05
5.2519e-05
5.25053e-05
5.27085e-05
5.33228e-05
8.26736e-05
8.58421e-05
8.27649e-05
7.96372e-05
7.65453e-05
7.35452e-05
7.06874e-05
6.80132e-05
6.55535e-05
6.33276e-05
6.13444e-05
5.96025e-05
5.80931e-05
5.6802e-05
5.5711e-05
5.48006e-05
5.4051e-05
5.34441e-05
5.29642e-05
5.2599e-05
5.23405e-05
5.21854e-05
5.21348e-05
5.2194e-05
5.23651e-05
5.25535e-05
5.26832e-05
5.27649e-05
5.28109e-05
5.28323e-05
5.28374e-05
5.28322e-05
5.28203e-05
5.28045e-05
5.27865e-05
5.27678e-05
5.27495e-05
5.27332e-05
5.27205e-05
5.27126e-05
5.27115e-05
5.27197e-05
5.27405e-05
5.27891e-05
5.28022e-05
5.27882e-05
5.30296e-05
5.37604e-05
8.24696e-05
8.61839e-05
8.3131e-05
8.00188e-05
7.69379e-05
7.39448e-05
7.10902e-05
6.8416e-05
6.59535e-05
6.37226e-05
6.17325e-05
5.99824e-05
5.84638e-05
5.71625e-05
5.60608e-05
5.51392e-05
5.43784e-05
5.37603e-05
5.32695e-05
5.28941e-05
5.26266e-05
5.24641e-05
5.24085e-05
5.24661e-05
5.26399e-05
5.28325e-05
5.29651e-05
5.30481e-05
5.30941e-05
5.31146e-05
5.31187e-05
5.31123e-05
5.30995e-05
5.30827e-05
5.30637e-05
5.3044e-05
5.30247e-05
5.30075e-05
5.29941e-05
5.29857e-05
5.29845e-05
5.29932e-05
5.30153e-05
5.30687e-05
5.30838e-05
5.30701e-05
5.33541e-05
5.42132e-05
8.22406e-05
8.65313e-05
8.3504e-05
8.04077e-05
7.73385e-05
7.4353e-05
7.15022e-05
6.88286e-05
6.63639e-05
6.41285e-05
6.2132e-05
6.0374e-05
5.88462e-05
5.75348e-05
5.64223e-05
5.54894e-05
5.47169e-05
5.40871e-05
5.35847e-05
5.31983e-05
5.29206e-05
5.27494e-05
5.26875e-05
5.27418e-05
5.29167e-05
5.31118e-05
5.32463e-05
5.33297e-05
5.33751e-05
5.33943e-05
5.3397e-05
5.33894e-05
5.33755e-05
5.33576e-05
5.33376e-05
5.33168e-05
5.32962e-05
5.3278e-05
5.32637e-05
5.32547e-05
5.32532e-05
5.32624e-05
5.32858e-05
5.33443e-05
5.33619e-05
5.33492e-05
5.36801e-05
5.46792e-05
8.19848e-05
8.68839e-05
8.38834e-05
8.08035e-05
7.77465e-05
7.47691e-05
7.19229e-05
6.92505e-05
6.67842e-05
6.45449e-05
6.25424e-05
6.07767e-05
5.924e-05
5.79186e-05
5.67951e-05
5.58506e-05
5.5066e-05
5.44239e-05
5.39093e-05
5.35109e-05
5.3222e-05
5.30408e-05
5.29709e-05
5.30203e-05
5.31941e-05
5.33901e-05
5.35251e-05
5.3608e-05
5.36521e-05
5.36697e-05
5.36708e-05
5.36617e-05
5.36466e-05
5.36276e-05
5.36064e-05
5.35842e-05
5.35623e-05
5.35427e-05
5.35274e-05
5.35175e-05
5.35158e-05
5.35253e-05
5.35502e-05
5.36142e-05
5.36346e-05
5.36234e-05
5.4006e-05
5.51562e-05
8.17002e-05
8.72411e-05
8.42686e-05
8.12057e-05
7.81614e-05
7.51929e-05
7.23518e-05
6.96813e-05
6.72141e-05
6.49713e-05
6.29632e-05
6.11902e-05
5.96447e-05
5.83132e-05
5.71787e-05
5.62223e-05
5.54252e-05
5.47702e-05
5.42426e-05
5.38313e-05
5.353e-05
5.33375e-05
5.32579e-05
5.33003e-05
5.34711e-05
5.36659e-05
5.38e-05
5.38814e-05
5.39236e-05
5.3939e-05
5.39381e-05
5.39275e-05
5.3911e-05
5.38908e-05
5.38682e-05
5.38445e-05
5.3821e-05
5.37998e-05
5.37832e-05
5.37724e-05
5.37702e-05
5.37801e-05
5.38066e-05
5.38762e-05
5.38999e-05
5.38908e-05
5.43296e-05
5.56416e-05
8.1385e-05
8.76022e-05
8.46592e-05
8.16137e-05
7.85827e-05
7.56237e-05
7.27884e-05
7.01205e-05
6.76528e-05
6.54071e-05
6.33939e-05
6.16139e-05
6.00597e-05
5.87181e-05
5.75724e-05
5.66039e-05
5.57939e-05
5.51255e-05
5.4584e-05
5.41588e-05
5.38439e-05
5.36385e-05
5.35475e-05
5.35809e-05
5.37462e-05
5.39378e-05
5.40694e-05
5.41482e-05
5.41876e-05
5.42004e-05
5.41971e-05
5.41848e-05
5.4167e-05
5.41455e-05
5.41214e-05
5.40959e-05
5.40703e-05
5.40474e-05
5.40292e-05
5.40172e-05
5.40145e-05
5.40248e-05
5.4053e-05
5.41285e-05
5.41557e-05
5.41493e-05
5.46489e-05
5.61326e-05
8.10374e-05
8.79666e-05
8.50547e-05
8.20271e-05
7.901e-05
7.6061e-05
7.32322e-05
7.05674e-05
6.81e-05
6.58519e-05
6.38339e-05
6.20471e-05
6.04843e-05
5.91327e-05
5.79756e-05
5.69947e-05
5.61713e-05
5.54888e-05
5.49326e-05
5.44925e-05
5.41627e-05
5.39429e-05
5.38387e-05
5.38608e-05
5.40182e-05
5.42042e-05
5.43316e-05
5.44066e-05
5.44423e-05
5.44519e-05
5.44461e-05
5.44317e-05
5.44125e-05
5.43896e-05
5.43638e-05
5.43363e-05
5.43085e-05
5.42834e-05
5.42634e-05
5.42501e-05
5.42468e-05
5.42574e-05
5.42874e-05
5.43688e-05
5.43999e-05
5.43968e-05
5.49616e-05
5.66259e-05
8.0656e-05
8.83337e-05
8.54547e-05
8.24454e-05
7.94427e-05
7.65043e-05
7.36825e-05
7.10215e-05
6.85549e-05
6.63048e-05
6.42825e-05
6.24891e-05
6.0918e-05
5.95562e-05
5.83876e-05
5.73938e-05
5.65566e-05
5.58592e-05
5.52876e-05
5.48316e-05
5.44855e-05
5.42498e-05
5.41303e-05
5.41388e-05
5.42856e-05
5.44636e-05
5.4585e-05
5.46547e-05
5.46859e-05
5.46917e-05
5.46829e-05
5.46665e-05
5.46457e-05
5.46213e-05
5.45936e-05
5.45638e-05
5.45334e-05
5.45058e-05
5.44839e-05
5.44691e-05
5.4465e-05
5.44759e-05
5.45077e-05
5.45953e-05
5.46303e-05
5.46313e-05
5.52655e-05
5.71181e-05
8.02392e-05
8.87029e-05
8.58585e-05
8.28681e-05
7.98803e-05
7.69531e-05
7.41389e-05
7.14822e-05
6.90168e-05
6.67652e-05
6.47389e-05
6.29392e-05
6.13597e-05
5.99878e-05
5.88074e-05
5.78003e-05
5.69487e-05
5.62359e-05
5.5648e-05
5.51748e-05
5.48113e-05
5.45579e-05
5.44212e-05
5.44138e-05
5.4547e-05
5.47145e-05
5.4828e-05
5.4891e-05
5.49167e-05
5.4918e-05
5.49059e-05
5.48871e-05
5.48647e-05
5.48388e-05
5.4809e-05
5.47764e-05
5.47431e-05
5.47128e-05
5.46887e-05
5.46722e-05
5.46672e-05
5.46783e-05
5.47119e-05
5.48057e-05
5.48449e-05
5.48508e-05
5.55583e-05
5.76055e-05
7.9786e-05
8.90735e-05
8.62658e-05
8.32947e-05
8.03223e-05
7.74067e-05
7.46008e-05
7.19489e-05
6.94852e-05
6.72324e-05
6.52023e-05
6.33964e-05
6.18086e-05
6.04264e-05
5.9234e-05
5.82134e-05
5.73468e-05
5.66177e-05
5.60125e-05
5.55212e-05
5.51388e-05
5.48661e-05
5.47102e-05
5.46843e-05
5.48012e-05
5.49555e-05
5.50589e-05
5.51138e-05
5.51328e-05
5.5129e-05
5.51131e-05
5.50918e-05
5.50676e-05
5.504e-05
5.50079e-05
5.49724e-05
5.49357e-05
5.49024e-05
5.48758e-05
5.48575e-05
5.48515e-05
5.48627e-05
5.4898e-05
5.49982e-05
5.50416e-05
5.50534e-05
5.58378e-05
5.80839e-05
7.92954e-05
8.94448e-05
8.66762e-05
8.37247e-05
8.07681e-05
7.78647e-05
7.50674e-05
7.24207e-05
6.99591e-05
6.77055e-05
6.56717e-05
6.38598e-05
6.22636e-05
6.08711e-05
5.96664e-05
5.86319e-05
5.77497e-05
5.70037e-05
5.63802e-05
5.58695e-05
5.54668e-05
5.51732e-05
5.49961e-05
5.49492e-05
5.50467e-05
5.51851e-05
5.52764e-05
5.53215e-05
5.53328e-05
5.53231e-05
5.53029e-05
5.52787e-05
5.52527e-05
5.52233e-05
5.51887e-05
5.51498e-05
5.51094e-05
5.50728e-05
5.50434e-05
5.50231e-05
5.5016e-05
5.50272e-05
5.50643e-05
5.51708e-05
5.52186e-05
5.52372e-05
5.61018e-05
5.85491e-05
7.87665e-05
8.98161e-05
8.70891e-05
8.41576e-05
8.12172e-05
7.83265e-05
7.55381e-05
7.28971e-05
7.04378e-05
6.81835e-05
6.61463e-05
6.43283e-05
6.27237e-05
6.13206e-05
6.01034e-05
5.90544e-05
5.81563e-05
5.73926e-05
5.675e-05
5.62187e-05
5.57943e-05
5.5478e-05
5.52776e-05
5.52072e-05
5.52823e-05
5.5402e-05
5.54791e-05
5.55128e-05
5.55151e-05
5.54986e-05
5.54735e-05
5.54462e-05
5.54182e-05
5.53869e-05
5.53495e-05
5.53069e-05
5.52625e-05
5.52222e-05
5.51899e-05
5.51674e-05
5.51591e-05
5.51701e-05
5.52089e-05
5.53218e-05
5.5374e-05
5.54008e-05
5.63479e-05
5.89963e-05
7.8199e-05
9.01867e-05
8.7504e-05
8.4593e-05
8.16692e-05
7.87914e-05
7.60124e-05
7.33773e-05
7.09206e-05
6.86657e-05
6.66251e-05
6.4801e-05
6.31877e-05
6.17738e-05
6.05436e-05
5.94799e-05
5.8565e-05
5.7783e-05
5.71204e-05
5.65676e-05
5.61201e-05
5.57794e-05
5.55535e-05
5.54572e-05
5.55067e-05
5.56051e-05
5.56657e-05
5.56863e-05
5.56783e-05
5.56541e-05
5.56236e-05
5.55927e-05
5.55624e-05
5.55291e-05
5.54888e-05
5.54421e-05
5.53932e-05
5.5349e-05
5.53136e-05
5.52888e-05
5.52792e-05
5.52899e-05
5.53304e-05
5.54496e-05
5.55061e-05
5.55425e-05
5.65744e-05
5.9421e-05
7.75928e-05
9.05557e-05
8.79207e-05
8.50304e-05
8.21235e-05
7.9259e-05
7.64896e-05
7.38606e-05
7.14065e-05
6.91511e-05
6.71069e-05
6.52765e-05
6.36544e-05
6.22293e-05
6.09858e-05
5.99067e-05
5.89747e-05
5.81737e-05
5.74903e-05
5.69149e-05
5.6443e-05
5.60763e-05
5.58229e-05
5.5698e-05
5.5719e-05
5.57932e-05
5.58352e-05
5.58409e-05
5.58214e-05
5.57885e-05
5.57518e-05
5.57168e-05
5.5684e-05
5.56485e-05
5.56051e-05
5.5554e-05
5.55003e-05
5.54519e-05
5.54132e-05
5.53859e-05
5.53748e-05
5.53852e-05
5.54272e-05
5.55528e-05
5.56136e-05
5.56612e-05
5.67791e-05
5.98183e-05
7.69478e-05
9.09225e-05
8.83386e-05
8.54694e-05
8.25797e-05
7.97286e-05
7.69691e-05
7.43462e-05
7.18948e-05
6.96388e-05
6.75908e-05
6.57538e-05
6.41225e-05
6.26858e-05
6.14285e-05
6.03336e-05
5.93837e-05
5.8563e-05
5.7858e-05
5.72591e-05
5.67618e-05
5.63675e-05
5.60847e-05
5.59288e-05
5.5918e-05
5.59654e-05
5.59866e-05
5.59758e-05
5.59433e-05
5.59007e-05
5.5857e-05
5.58173e-05
5.57816e-05
5.57438e-05
5.5697e-05
5.56412e-05
5.55823e-05
5.55296e-05
5.54874e-05
5.54576e-05
5.54449e-05
5.54548e-05
5.54985e-05
5.56301e-05
5.5695e-05
5.57558e-05
5.69606e-05
6.01836e-05
7.62648e-05
9.12861e-05
8.87574e-05
8.59095e-05
8.30371e-05
8.01997e-05
7.74501e-05
7.48334e-05
7.23846e-05
7.01277e-05
6.80757e-05
6.62316e-05
6.45907e-05
6.31419e-05
6.18703e-05
6.07589e-05
5.97907e-05
5.89496e-05
5.82222e-05
5.75989e-05
5.70751e-05
5.6652e-05
5.6338e-05
5.61485e-05
5.61028e-05
5.61208e-05
5.61192e-05
5.60902e-05
5.60434e-05
5.59899e-05
5.59383e-05
5.58932e-05
5.58542e-05
5.58138e-05
5.57635e-05
5.57026e-05
5.56384e-05
5.5581e-05
5.55352e-05
5.55028e-05
5.54885e-05
5.54978e-05
5.55432e-05
5.56808e-05
5.57494e-05
5.58254e-05
5.71169e-05
6.05128e-05
7.55445e-05
9.16457e-05
8.91766e-05
8.63503e-05
8.34955e-05
8.06719e-05
7.79322e-05
7.53215e-05
7.2875e-05
7.06169e-05
6.85604e-05
6.67089e-05
6.50577e-05
6.35962e-05
6.23096e-05
6.11812e-05
6.01939e-05
5.93318e-05
5.85814e-05
5.79329e-05
5.73815e-05
5.69284e-05
5.65816e-05
5.63566e-05
5.62731e-05
5.62588e-05
5.62324e-05
5.61836e-05
5.61211e-05
5.60555e-05
5.5995e-05
5.59438e-05
5.59008e-05
5.58576e-05
5.58036e-05
5.57375e-05
5.56675e-05
5.56055e-05
5.5556e-05
5.55209e-05
5.55049e-05
5.55136e-05
5.55607e-05
5.5704e-05
5.5776e-05
5.58695e-05
5.72469e-05
6.0801e-05
7.47881e-05
9.20005e-05
8.95959e-05
8.67915e-05
8.39544e-05
8.11446e-05
7.84147e-05
7.58098e-05
7.33653e-05
7.11055e-05
6.90439e-05
6.71842e-05
6.55222e-05
6.40473e-05
6.27451e-05
6.1599e-05
6.0592e-05
5.97082e-05
5.8934e-05
5.82597e-05
5.76799e-05
5.71957e-05
5.68146e-05
5.6552e-05
5.6428e-05
5.6379e-05
5.63258e-05
5.62556e-05
5.61761e-05
5.60973e-05
5.60267e-05
5.59684e-05
5.59208e-05
5.58745e-05
5.58167e-05
5.57451e-05
5.56694e-05
5.56025e-05
5.55493e-05
5.55114e-05
5.54937e-05
5.55017e-05
5.55507e-05
5.56994e-05
5.57744e-05
5.58877e-05
5.73492e-05
6.10443e-05
7.39972e-05
9.23493e-05
9.00149e-05
8.72326e-05
8.44133e-05
8.16173e-05
7.8897e-05
7.62976e-05
7.38546e-05
7.15925e-05
6.95251e-05
6.76566e-05
6.59828e-05
6.44937e-05
6.31751e-05
6.20106e-05
6.09833e-05
6.00772e-05
5.92788e-05
5.85778e-05
5.7969e-05
5.74526e-05
5.7036e-05
5.67341e-05
5.65672e-05
5.64811e-05
5.63992e-05
5.63061e-05
5.62082e-05
5.61149e-05
5.60333e-05
5.59668e-05
5.59138e-05
5.5864e-05
5.58022e-05
5.57252e-05
5.56436e-05
5.55718e-05
5.55148e-05
5.54741e-05
5.54548e-05
5.54621e-05
5.55131e-05
5.56667e-05
5.57443e-05
5.58797e-05
5.74224e-05
6.12393e-05
7.31737e-05
9.26911e-05
9.04332e-05
8.76734e-05
8.48719e-05
8.20895e-05
7.93786e-05
7.67844e-05
7.43422e-05
7.20771e-05
7.00031e-05
6.81247e-05
6.64384e-05
6.49342e-05
6.35984e-05
6.24147e-05
6.13664e-05
6.04374e-05
5.96141e-05
5.88861e-05
5.82475e-05
5.76983e-05
5.72451e-05
5.69023e-05
5.66902e-05
5.6565e-05
5.64525e-05
5.63351e-05
5.62177e-05
5.61087e-05
5.60148e-05
5.5939e-05
5.58797e-05
5.58259e-05
5.57602e-05
5.56777e-05
5.55901e-05
5.55135e-05
5.54527e-05
5.54093e-05
5.53883e-05
5.5395e-05
5.54481e-05
5.56063e-05
5.5686e-05
5.58452e-05
5.74647e-05
6.13831e-05
7.23198e-05
9.30249e-05
9.08506e-05
8.81135e-05
8.53298e-05
8.25609e-05
7.98591e-05
7.72694e-05
7.48275e-05
7.25584e-05
7.04769e-05
6.85877e-05
6.68877e-05
6.53675e-05
6.40136e-05
6.28099e-05
6.17398e-05
6.07874e-05
5.99387e-05
5.91831e-05
5.85144e-05
5.79317e-05
5.7441e-05
5.7056e-05
5.67967e-05
5.66306e-05
5.6486e-05
5.63429e-05
5.62046e-05
5.60788e-05
5.59714e-05
5.58853e-05
5.58186e-05
5.57603e-05
5.56906e-05
5.56028e-05
5.55094e-05
5.5428e-05
5.53634e-05
5.53173e-05
5.52946e-05
5.53007e-05
5.5356e-05
5.55184e-05
5.56e-05
5.57845e-05
5.74752e-05
6.14738e-05
7.14382e-05
9.33495e-05
9.12667e-05
8.85525e-05
8.57866e-05
8.30311e-05
8.0338e-05
7.77522e-05
7.53097e-05
7.30358e-05
7.09456e-05
6.90445e-05
6.73297e-05
6.57924e-05
6.44193e-05
6.31948e-05
6.21023e-05
6.11258e-05
6.02513e-05
5.94678e-05
5.87685e-05
5.81519e-05
5.76231e-05
5.71947e-05
5.68867e-05
5.66781e-05
5.64998e-05
5.63299e-05
5.61697e-05
5.60259e-05
5.59039e-05
5.58061e-05
5.5731e-05
5.56674e-05
5.55938e-05
5.55009e-05
5.5402e-05
5.53159e-05
5.52477e-05
5.51988e-05
5.51744e-05
5.518e-05
5.52377e-05
5.54038e-05
5.5487e-05
5.56977e-05
5.74527e-05
6.15103e-05
7.05317e-05
9.36636e-05
9.16813e-05
8.89903e-05
8.62421e-05
8.34997e-05
8.08148e-05
7.82323e-05
7.57883e-05
7.35085e-05
7.14085e-05
6.94941e-05
6.77633e-05
6.62077e-05
6.48145e-05
6.35682e-05
6.24525e-05
6.14514e-05
6.05507e-05
5.9739e-05
5.90089e-05
5.83581e-05
5.77907e-05
5.73182e-05
5.69599e-05
5.67075e-05
5.64944e-05
5.62967e-05
5.61135e-05
5.59506e-05
5.58128e-05
5.57023e-05
5.56175e-05
5.5548e-05
5.54705e-05
5.53729e-05
5.52687e-05
5.51782e-05
5.51063e-05
5.50549e-05
5.50287e-05
5.50338e-05
5.50937e-05
5.5263e-05
5.53476e-05
5.55855e-05
5.73973e-05
6.14918e-05
6.96034e-05
9.39659e-05
9.20939e-05
8.94266e-05
8.66961e-05
8.39665e-05
8.12893e-05
7.87093e-05
7.62628e-05
7.3976e-05
7.18648e-05
6.99359e-05
6.81878e-05
6.66126e-05
6.51981e-05
6.3929e-05
6.27894e-05
6.17631e-05
6.08358e-05
5.99956e-05
5.92346e-05
5.85496e-05
5.79433e-05
5.74261e-05
5.70166e-05
5.67192e-05
5.64703e-05
5.6244e-05
5.60369e-05
5.5854e-05
5.56993e-05
5.55748e-05
5.54793e-05
5.5403e-05
5.53216e-05
5.52197e-05
5.51108e-05
5.5016e-05
5.49407e-05
5.48866e-05
5.48587e-05
5.48632e-05
5.49253e-05
5.50969e-05
5.51824e-05
5.54483e-05
5.73089e-05
6.14187e-05
6.86568e-05
9.42548e-05
9.25043e-05
8.9861e-05
8.71482e-05
8.44312e-05
8.17611e-05
7.91829e-05
7.67328e-05
7.44377e-05
7.2314e-05
7.03692e-05
6.86023e-05
6.70062e-05
6.55691e-05
6.42764e-05
6.31119e-05
6.20599e-05
6.11056e-05
6.02369e-05
5.9445e-05
5.87256e-05
5.80804e-05
5.75184e-05
5.70568e-05
5.67137e-05
5.64281e-05
5.61723e-05
5.59411e-05
5.57371e-05
5.55646e-05
5.5425e-05
5.53175e-05
5.52334e-05
5.51482e-05
5.50427e-05
5.49296e-05
5.48309e-05
5.47522e-05
5.46955e-05
5.46658e-05
5.46696e-05
5.47337e-05
5.49064e-05
5.49927e-05
5.52868e-05
5.71863e-05
6.12877e-05
6.76955e-05
9.45289e-05
9.29124e-05
9.02936e-05
8.75982e-05
8.48935e-05
8.22301e-05
7.96527e-05
7.71981e-05
7.48933e-05
7.27558e-05
7.07934e-05
6.90063e-05
6.73879e-05
6.5927e-05
6.46094e-05
6.34194e-05
6.2341e-05
6.13594e-05
6.0462e-05
5.96392e-05
5.88857e-05
5.82018e-05
5.75949e-05
5.70809e-05
5.66914e-05
5.63685e-05
5.60827e-05
5.58269e-05
5.56013e-05
5.54099e-05
5.52544e-05
5.51337e-05
5.5041e-05
5.49517e-05
5.48434e-05
5.47267e-05
5.46245e-05
5.45427e-05
5.44832e-05
5.44516e-05
5.44545e-05
5.45202e-05
5.46929e-05
5.47797e-05
5.51018e-05
5.70291e-05
6.10974e-05
6.67231e-05
9.47863e-05
9.33177e-05
9.0724e-05
8.80461e-05
8.53533e-05
8.2696e-05
8.01187e-05
7.76583e-05
7.53427e-05
7.31897e-05
7.12083e-05
6.93993e-05
6.77571e-05
6.62711e-05
6.49276e-05
6.37111e-05
6.26058e-05
6.15966e-05
6.06704e-05
5.98168e-05
5.90295e-05
5.83073e-05
5.76556e-05
5.70892e-05
5.6653e-05
5.62923e-05
5.59762e-05
5.56953e-05
5.54482e-05
5.52371e-05
5.50646e-05
5.49299e-05
5.48273e-05
5.47339e-05
5.46234e-05
5.45041e-05
5.43988e-05
5.43139e-05
5.42518e-05
5.4218e-05
5.42198e-05
5.42866e-05
5.4458e-05
5.45453e-05
5.48946e-05
5.68386e-05
6.08487e-05
6.57436e-05
9.50254e-05
9.372e-05
9.11521e-05
8.84917e-05
8.58106e-05
8.31587e-05
8.05806e-05
7.81135e-05
7.57855e-05
7.36156e-05
7.16136e-05
6.97812e-05
6.81137e-05
6.66012e-05
6.52305e-05
6.39866e-05
6.28537e-05
6.18166e-05
6.08616e-05
5.99774e-05
5.91567e-05
5.83965e-05
5.77007e-05
5.70822e-05
5.65992e-05
5.62004e-05
5.58538e-05
5.55477e-05
5.52791e-05
5.50479e-05
5.48576e-05
5.47079e-05
5.45945e-05
5.44967e-05
5.43847e-05
5.42636e-05
5.41557e-05
5.40681e-05
5.40032e-05
5.3967e-05
5.39674e-05
5.40346e-05
5.42034e-05
5.42907e-05
5.46662e-05
5.66145e-05
6.05426e-05
6.47607e-05
9.52441e-05
9.41191e-05
9.15777e-05
8.89347e-05
8.62651e-05
8.36182e-05
8.10385e-05
7.85634e-05
7.62219e-05
7.40336e-05
7.20093e-05
7.01518e-05
6.84574e-05
6.6917e-05
6.5518e-05
6.42458e-05
6.30847e-05
6.20192e-05
6.10352e-05
6.01208e-05
5.9267e-05
5.84696e-05
5.77304e-05
5.70604e-05
5.65308e-05
5.6094e-05
5.57166e-05
5.53852e-05
5.50952e-05
5.48442e-05
5.46355e-05
5.447e-05
5.43449e-05
5.42421e-05
5.41293e-05
5.40074e-05
5.38975e-05
5.38073e-05
5.37396e-05
5.37008e-05
5.36995e-05
5.37662e-05
5.39311e-05
5.40182e-05
5.44181e-05
5.6359e-05
6.01816e-05
6.37785e-05
9.54403e-05
9.45146e-05
9.20008e-05
8.93753e-05
8.67168e-05
8.40744e-05
8.14923e-05
7.90083e-05
7.66519e-05
7.44437e-05
7.23955e-05
7.05114e-05
6.87885e-05
6.72187e-05
6.57902e-05
6.44886e-05
6.32984e-05
6.22042e-05
6.11912e-05
6.02467e-05
5.93605e-05
5.85267e-05
5.77449e-05
5.70243e-05
5.64487e-05
5.59739e-05
5.5566e-05
5.52095e-05
5.4898e-05
5.46281e-05
5.44004e-05
5.42185e-05
5.40808e-05
5.39724e-05
5.38594e-05
5.37377e-05
5.36265e-05
5.3534e-05
5.34634e-05
5.34217e-05
5.34182e-05
5.34837e-05
5.36431e-05
5.37297e-05
5.41519e-05
5.60727e-05
5.97684e-05
6.28006e-05
9.56118e-05
9.49064e-05
9.24213e-05
8.98133e-05
8.71658e-05
8.45275e-05
8.19423e-05
7.94483e-05
7.70757e-05
7.48461e-05
7.27725e-05
7.08601e-05
6.91071e-05
6.75065e-05
6.60471e-05
6.47151e-05
6.34952e-05
6.23718e-05
6.13297e-05
6.03553e-05
5.94372e-05
5.85678e-05
5.77447e-05
5.69748e-05
5.63538e-05
5.58415e-05
5.54033e-05
5.50219e-05
5.46892e-05
5.44009e-05
5.41547e-05
5.3956e-05
5.38048e-05
5.369e-05
5.35772e-05
5.34567e-05
5.33449e-05
5.32506e-05
5.31771e-05
5.31321e-05
5.3126e-05
5.31892e-05
5.33418e-05
5.34275e-05
5.38693e-05
5.57593e-05
5.93093e-05
6.18309e-05
9.57561e-05
9.52941e-05
9.28389e-05
9.02486e-05
8.76121e-05
8.49774e-05
8.23885e-05
7.98836e-05
7.74937e-05
7.52414e-05
7.31408e-05
7.11985e-05
6.94138e-05
6.77809e-05
6.62893e-05
6.49258e-05
6.36754e-05
6.25223e-05
6.14509e-05
6.04468e-05
5.94974e-05
5.85933e-05
5.77302e-05
5.69124e-05
5.62471e-05
5.56978e-05
5.52298e-05
5.48239e-05
5.44706e-05
5.41642e-05
5.39006e-05
5.36848e-05
5.35196e-05
5.33976e-05
5.32852e-05
5.31667e-05
5.30552e-05
5.29595e-05
5.28832e-05
5.28347e-05
5.28254e-05
5.28855e-05
5.303e-05
5.31141e-05
5.35718e-05
5.54203e-05
5.88129e-05
6.0873e-05
9.58706e-05
9.56773e-05
9.32538e-05
9.06813e-05
8.80557e-05
8.54245e-05
8.28313e-05
8.03147e-05
7.79063e-05
7.56299e-05
7.35009e-05
7.15271e-05
6.97093e-05
6.80425e-05
6.65174e-05
6.51212e-05
6.38394e-05
6.2656e-05
6.15552e-05
6.05216e-05
5.95414e-05
5.86037e-05
5.77019e-05
5.68381e-05
5.61297e-05
5.55442e-05
5.50469e-05
5.46172e-05
5.42438e-05
5.39199e-05
5.36407e-05
5.34075e-05
5.32279e-05
5.30976e-05
5.29856e-05
5.28701e-05
5.27598e-05
5.26632e-05
5.25843e-05
5.25322e-05
5.25194e-05
5.25755e-05
5.27115e-05
5.27931e-05
5.32611e-05
5.50592e-05
5.8287e-05
5.99302e-05
9.59525e-05
9.60558e-05
9.36657e-05
9.11114e-05
8.84967e-05
8.58687e-05
8.32708e-05
8.07418e-05
7.8314e-05
7.60123e-05
7.38536e-05
7.18468e-05
6.99943e-05
6.82922e-05
6.67322e-05
6.53023e-05
6.39881e-05
6.27739e-05
6.16433e-05
6.05803e-05
5.95699e-05
5.85996e-05
5.76606e-05
5.67528e-05
5.60027e-05
5.53819e-05
5.48561e-05
5.44032e-05
5.40105e-05
5.36699e-05
5.33758e-05
5.31265e-05
5.29324e-05
5.27929e-05
5.26808e-05
5.2569e-05
5.24608e-05
5.23642e-05
5.22829e-05
5.22271e-05
5.22105e-05
5.22621e-05
5.23894e-05
5.24676e-05
5.294e-05
5.468e-05
5.77412e-05
5.90058e-05
9.5999e-05
9.64291e-05
9.40747e-05
9.15388e-05
8.89353e-05
8.63104e-05
8.37075e-05
8.11654e-05
7.87174e-05
7.63894e-05
7.41996e-05
7.21585e-05
7.02698e-05
6.8531e-05
6.69348e-05
6.54699e-05
6.41224e-05
6.28766e-05
6.17159e-05
6.06235e-05
5.95835e-05
5.85816e-05
5.76071e-05
5.66572e-05
5.58671e-05
5.52122e-05
5.46588e-05
5.41835e-05
5.37723e-05
5.3416e-05
5.3108e-05
5.28444e-05
5.26356e-05
5.2486e-05
5.23732e-05
5.22656e-05
5.21607e-05
5.20649e-05
5.19817e-05
5.19223e-05
5.19017e-05
5.19485e-05
5.20669e-05
5.21405e-05
5.26112e-05
5.42869e-05
5.71859e-05
5.81027e-05
9.6007e-05
9.67969e-05
9.44807e-05
9.19637e-05
8.93714e-05
8.67498e-05
8.41416e-05
8.15861e-05
7.91172e-05
7.67619e-05
7.45399e-05
7.24632e-05
7.0537e-05
6.87601e-05
6.71263e-05
6.56252e-05
6.42433e-05
6.29652e-05
6.1774e-05
6.06524e-05
5.95831e-05
5.85506e-05
5.75421e-05
5.65525e-05
5.57241e-05
5.50364e-05
5.44564e-05
5.39596e-05
5.35308e-05
5.31598e-05
5.2839e-05
5.25634e-05
5.234e-05
5.21796e-05
5.20652e-05
5.19622e-05
5.18615e-05
5.17675e-05
5.16833e-05
5.16207e-05
5.15961e-05
5.16379e-05
5.17479e-05
5.18156e-05
5.22775e-05
5.38847e-05
5.66323e-05
5.72237e-05
9.59731e-05
9.71587e-05
9.48836e-05
9.2386e-05
8.98053e-05
8.71871e-05
8.45736e-05
8.20044e-05
7.95141e-05
7.71307e-05
7.48755e-05
7.2762e-05
7.0797e-05
6.89806e-05
6.7308e-05
6.57695e-05
6.43523e-05
6.30411e-05
6.18189e-05
6.06678e-05
5.95697e-05
5.85076e-05
5.74667e-05
5.64396e-05
5.55749e-05
5.48558e-05
5.42503e-05
5.3733e-05
5.32877e-05
5.2903e-05
5.25706e-05
5.22846e-05
5.20477e-05
5.18761e-05
5.17591e-05
5.16606e-05
5.15652e-05
5.14743e-05
5.13901e-05
5.13249e-05
5.12966e-05
5.13337e-05
5.14362e-05
5.14965e-05
5.19424e-05
5.34783e-05
5.60896e-05
5.6371e-05
9.58941e-05
9.75138e-05
9.52833e-05
9.28057e-05
9.02371e-05
8.76225e-05
8.5004e-05
8.2421e-05
7.99088e-05
7.74968e-05
7.52075e-05
7.30562e-05
7.10512e-05
6.91941e-05
6.74813e-05
6.59042e-05
6.44506e-05
6.31055e-05
6.18517e-05
6.0671e-05
5.95444e-05
5.84535e-05
5.73819e-05
5.63197e-05
5.54207e-05
5.46717e-05
5.40419e-05
5.35052e-05
5.30444e-05
5.26471e-05
5.23042e-05
5.20091e-05
5.17609e-05
5.15779e-05
5.14569e-05
5.13628e-05
5.12736e-05
5.11872e-05
5.11045e-05
5.10376e-05
5.10062e-05
5.10391e-05
5.11355e-05
5.11871e-05
5.16101e-05
5.30731e-05
5.55661e-05
5.55468e-05
9.57664e-05
9.78618e-05
9.56799e-05
9.32229e-05
9.06668e-05
8.80564e-05
8.5433e-05
8.28362e-05
8.03021e-05
7.7861e-05
7.5537e-05
7.3347e-05
7.13009e-05
6.9402e-05
6.76478e-05
6.60309e-05
6.45399e-05
6.31599e-05
6.18739e-05
6.06634e-05
5.95085e-05
5.83897e-05
5.72888e-05
5.61939e-05
5.52626e-05
5.44854e-05
5.38325e-05
5.32776e-05
5.28023e-05
5.23935e-05
5.20413e-05
5.17385e-05
5.14815e-05
5.12871e-05
5.11609e-05
5.10706e-05
5.09885e-05
5.09081e-05
5.08283e-05
5.07613e-05
5.07276e-05
5.07572e-05
5.08493e-05
5.08913e-05
5.12852e-05
5.26743e-05
5.50666e-05
5.47529e-05
9.55865e-05
9.8202e-05
9.60732e-05
9.36377e-05
9.10948e-05
8.8489e-05
8.58611e-05
8.32509e-05
8.06947e-05
7.82244e-05
7.58651e-05
7.36357e-05
7.15476e-05
6.96057e-05
6.78091e-05
6.61513e-05
6.46216e-05
6.32059e-05
6.18871e-05
6.06464e-05
5.94634e-05
5.83174e-05
5.71886e-05
5.60633e-05
5.51018e-05
5.4298e-05
5.36235e-05
5.30514e-05
5.25627e-05
5.21435e-05
5.17832e-05
5.14739e-05
5.12109e-05
5.10055e-05
5.0873e-05
5.07856e-05
5.0711e-05
5.06381e-05
5.05633e-05
5.04978e-05
5.04631e-05
5.04906e-05
5.05805e-05
5.06127e-05
5.09725e-05
5.22869e-05
5.45936e-05
5.39906e-05
9.53507e-05
9.85335e-05
9.64631e-05
9.40501e-05
9.1521e-05
8.89205e-05
8.62888e-05
8.36654e-05
8.10876e-05
7.85878e-05
7.6193e-05
7.39235e-05
7.17926e-05
6.98069e-05
6.79667e-05
6.62669e-05
6.46976e-05