/*--------------------------------*- C++ -*----------------------------------*\
  =========                 |
  \\      /  F ield         | OpenFOAM: The Open Source CFD Toolbox
   \\    /   O peration     | Website:  https://openfoam.org
    \\  /    A nd           | Version:  10
     \\/     M anipulation  |
\*---------------------------------------------------------------------------*/
FoamFile
{
    format      ascii;
    class       volScalarField;
    location    "10";
    object      omega;
}
// * * * * * * * * * * * * * * * * * * * * * * * * * * * * * * * * * * * * * //

dimensions      [0 0 -1 0 0 0 0];

internalField   nonuniform List<scalar> 
38016
(
327.544
374.035
437.4
510.602
594.721
690.797
799.74
922.235
1058.63
1208.82
1372.14
1547.25
1732.11
1923.93
2119.33
2314.4
2504.95
2686.71
2855.61
3007.87
3140.21
3249.94
3335.01
3393.93
3426.74
3447.96
3469.13
3489.36
3508.49
3526.37
3543.07
3558.73
3573.49
3587.48
3600.75
3613.39
3625.48
3637.14
3648.53
3659.87
3671.4
3683.33
3695.72
3708.33
3719.74
3728.32
3737.02
3759.46
326.675
371.143
433.821
506.216
589.387
684.351
791.996
912.982
1047.63
1195.82
1356.85
1529.35
1711.24
1899.74
2091.4
2282.29
2468.19
2644.79
2807.93
2953.78
3078.97
3180.73
3256.9
3305.96
3327.94
3339.05
3352.02
3365.65
3379.44
3393.02
3406.23
3419.06
3431.5
3443.58
3455.24
3466.51
3477.39
3487.97
3498.37
3508.77
3519.4
3530.44
3541.99
3553.83
3564.51
3572.52
3580.86
3602.41
325.637
368.02
429.976
501.525
583.701
677.501
783.789
903.198
1036.03
1182.12
1340.75
1510.54
1689.37
1874.43
2062.26
2248.9
2430.11
2601.55
2759.02
2898.65
3017.02
3111.26
3179.2
3219.28
3231.58
3233.77
3239.61
3247.53
3256.75
3266.66
3276.9
3287.34
3297.81
3308.27
3318.58
3328.69
3338.56
3348.23
3357.79
3367.42
3377.31
3387.65
3398.53
3409.78
3419.88
3427.42
3435.56
3456.49
324.445
364.679
425.883
496.552
577.695
670.286
775.163
892.935
1023.87
1167.79
1323.94
1490.92
1666.59
1848.12
2032.04
2214.39
2390.9
2557.23
2709.18
2842.84
2954.76
3042.05
3102.5
3134.54
3138.37
3132.87
3132.62
3135.73
3141.13
3147.98
3155.78
3164.23
3173.1
3182.23
3191.41
3200.55
3209.55
3218.44
3227.27
3236.2
3245.41
3255.08
3265.32
3275.98
3285.47
3292.47
3300.41
3320.83
323.112
361.131
421.554
491.311
571.383
662.719
766.135
882.209
1011.19
1152.85
1306.44
1470.5
1642.91
1820.82
2000.75
2178.74
2350.55
2511.82
2658.37
2786.29
2892.12
2972.96
3026.57
3051.44
3047.87
3035.75
3030.3
3029.35
3031.54
3035.85
3041.63
3048.44
3055.97
3063.98
3072.21
3080.5
3088.74
3096.91
3105.07
3113.33
3121.87
3130.87
3140.43
3150.45
3159.21
3165.54
3173.26
3193.36
321.652
357.386
416.999
485.809
564.771
654.808
756.708
871.023
997.965
1137.29
1288.21
1449.27
1618.31
1792.49
1968.33
2141.9
2308.96
2465.19
2606.44
2728.8
2828.83
2903.63
2950.98
2969.4
2959.29
2941.42
2931.51
2927.09
2926.58
2928.75
2932.82
2938.26
2944.65
2951.69
2959.09
2966.63
2974.18
2981.68
2989.18
2996.79
3004.66
3012.97
3021.82
3031.15
3039.11
3044.71
3052.27
3072.33
320.079
353.453
412.228
480.06
557.874
646.568
746.899
859.392
984.23
1121.14
1269.3
1427.25
1592.82
1763.16
1934.82
2103.88
2266.15
2417.35
2553.37
2670.34
2764.84
2833.99
2875.59
2888.19
2872.33
2849.47
2835.72
2828.35
2825.55
2825.92
2828.56
2832.83
2838.25
2844.47
2851.14
2858.01
2864.91
2871.8
2878.69
2885.67
2892.91
2900.54
2908.69
2917.35
2924.55
2929.47
2937.05
2957.48
318.408
349.346
407.256
474.081
550.713
638.021
736.734
847.347
970.011
1104.42
1249.74
1404.48
1566.47
1732.87
1900.26
2064.75
2222.2
2368.4
2499.28
2611.03
2700.28
2764.16
2800.49
2807.91
2787.03
2759.88
2742.86
2733
2728.28
2727.16
2728.6
2731.9
2736.5
2742.01
2748.04
2754.3
2760.63
2766.95
2773.27
2779.67
2786.3
2793.29
2800.77
2808.8
2815.31
2819.63
2827.38
2848.64
316.653
345.077
402.099
467.891
543.308
629.193
726.244
834.922
955.349
1087.19
1229.58
1381.02
1539.34
1701.72
1864.75
2024.62
2177.24
2318.47
2444.32
2551.04
2635.31
2694.31
2725.89
2728.71
2703.51
2672.74
2652.97
2641.05
2634.75
2632.41
2632.87
2635.37
2639.28
2644.18
2649.65
2655.39
2661.19
2666.99
2672.78
2678.64
2684.69
2691.08
2697.94
2705.4
2711.29
2715.11
2723.19
2745.67
314.83
340.659
396.772
461.507
535.682
620.109
715.456
822.151
940.283
1069.49
1208.88
1356.94
1511.5
1669.77
1828.39
1983.59
2131.37
2267.69
2388.63
2490.53
2570.12
2624.63
2651.94
2650.76
2621.9
2588.13
2566.11
2552.5
2544.93
2541.61
2541.3
2543.14
2546.49
2550.88
2555.87
2561.14
2566.47
2571.78
2577.09
2582.44
2587.97
2593.8
2600.08
2607.03
2612.4
2615.78
2624.34
2648.4
312.955
336.106
391.292
454.949
527.857
610.797
704.402
809.069
924.852
1051.37
1187.68
1332.28
1483.02
1637.11
1791.26
1941.78
2084.75
2216.22
2332.38
2429.67
2504.88
2555.3
2578.83
2574.22
2542.33
2506.13
2482.29
2467.35
2458.8
2454.72
2453.79
2455.12
2458.01
2461.97
2466.56
2471.41
2476.32
2481.2
2486.06
2490.95
2495.99
2501.32
2507.08
2513.59
2518.5
2521.53
2530.7
2556.65
311.041
331.432
385.674
448.235
519.854
601.279
693.112
795.71
909.098
1032.86
1166.05
1307.13
1453.98
1603.84
1753.49
1899.3
2037.48
2164.19
2275.73
2368.64
2439.79
2486.5
2506.73
2499.23
2464.91
2426.81
2401.56
2385.6
2376.31
2371.66
2370.29
2371.21
2373.74
2377.36
2381.6
2386.09
2390.63
2395.12
2399.58
2404.04
2408.65
2413.52
2418.82
2424.96
2429.49
2432.23
2442.1
2470.19
309.105
326.648
379.933
441.383
511.695
591.584
681.614
782.111
893.062
1014.02
1144.03
1281.55
1424.45
1570.05
1715.17
1856.29
1989.73
2111.78
2218.86
2307.61
2375.01
2418.41
2435.79
2425.92
2389.73
2350.22
2323.94
2307.25
2297.43
2292.4
2290.7
2291.34
2293.58
2296.92
2300.88
2305.07
2309.27
2313.42
2317.52
2321.61
2325.83
2330.29
2335.19
2341.02
2345.24
2347.74
2358.41
2388.82
307.161
321.767
374.084
434.412
503.402
581.735
669.94
768.305
876.785
994.908
1121.7
1255.6
1394.53
1535.83
1676.41
1812.87
1941.63
2059.13
2161.93
2246.78
2310.73
2351.2
2366.18
2354.44
2316.9
2276.43
2249.44
2232.27
2222.13
2216.86
2214.96
2215.4
2217.44
2220.57
2224.29
2228.23
2232.15
2235.99
2239.77
2243.53
2247.41
2251.53
2256.07
2261.65
2265.61
2267.91
2279.45
2312.34
305.225
316.804
368.143
427.34
494.996
571.758
658.119
754.328
860.309
975.561
1099.09
1229.36
1364.28
1501.28
1637.34
1769.17
1893.34
2006.42
2105.11
2186.3
2247.12
2285.04
2298.05
2284.91
2246.49
2205.49
2178.09
2160.66
2150.36
2144.99
2143
2143.32
2145.22
2148.19
2151.74
2155.47
2159.15
2162.73
2166.23
2169.71
2173.29
2177.11
2181.36
2186.73
2190.47
2192.62
2205.07
2240.56
303.311
311.769
362.123
420.183
486.497
561.677
646.179
740.215
843.675
956.033
1076.28
1202.89
1333.81
1466.5
1598.07
1725.33
1845
1953.8
2048.59
2126.37
2184.36
2220.09
2231.53
2217.43
2178.59
2137.42
2109.88
2092.4
2082.1
2076.73
2074.73
2075.01
2076.83
2079.69
2083.11
2086.68
2090.16
2093.53
2096.8
2100.03
2103.37
2106.93
2110.95
2116.15
2119.71
2121.73
2135.15
2173.31
301.434
306.674
356.04
412.958
477.924
551.516
634.149
726.001
826.925
936.373
1053.33
1176.27
1303.19
1431.61
1558.72
1681.48
1796.76
1901.45
1992.53
2067.14
2122.61
2156.49
2166.76
2152.11
2113.25
2072.26
2044.83
2027.46
2017.28
2012.03
2010.1
2010.39
2012.18
2014.99
2018.33
2021.77
2025.1
2028.29
2031.37
2034.4
2037.53
2040.9
2044.72
2049.79
2053.21
2055.11
2069.54
2110.41
299.606
301.532
349.906
405.681
469.299
541.298
622.057
711.717
810.099
916.631
1030.29
1149.57
1272.5
1396.68
1519.41
1637.77
1748.79
1849.51
1937.09
2008.79
2062.03
2094.4
2103.85
2089.03
2050.53
2010.03
1982.92
1965.82
1955.88
1950.82
1949.02
1949.38
1951.19
1953.98
1957.28
1960.65
1963.87
1966.92
1969.85
1972.72
1975.69
1978.89
1982.56
1987.53
1990.83
1992.65
2008.09
2051.7
297.843
296.354
343.734
398.369
460.638
531.045
609.931
697.399
793.239
896.858
1007.23
1122.86
1241.83
1361.82
1480.25
1594.32
1701.22
1798.16
1882.45
1951.48
2002.77
2033.94
2042.91
2028.28
1990.48
1950.75
1924.15
1907.45
1897.84
1893.04
1891.43
1891.9
1893.76
1896.58
1899.88
1903.23
1906.37
1909.32
1912.15
1914.9
1917.75
1920.82
1924.37
1929.28
1932.48
1934.22
1950.7
1997.03
296.157
291.15
337.538
391.036
451.961
520.78
597.797
683.078
776.383
877.1
984.198
1096.21
1211.27
1327.14
1441.34
1551.25
1654.19
1747.54
1828.75
1895.36
1944.97
1975.23
1984.04
1969.91
1933.13
1894.42
1868.5
1852.32
1843.12
1838.64
1837.27
1837.88
1839.83
1842.7
1846.05
1849.41
1852.52
1855.42
1858.17
1860.84
1863.6
1866.59
1870.06
1874.92
1878.04
1879.72
1897.24
1946.26
294.56
285.932
331.329
383.696
443.284
510.523
585.68
668.786
759.572
857.407
961.263
1069.7
1180.9
1292.72
1402.81
1508.67
1607.81
1697.77
1776.14
1840.58
1888.75
1918.38
1927.32
1913.98
1878.49
1841.03
1815.94
1800.38
1791.66
1787.56
1786.45
1787.24
1789.3
1792.26
1795.71
1799.11
1802.23
1805.11
1807.83
1810.45
1813.17
1816.11
1819.52
1824.37
1827.42
1829.06
1847.61
1899.27
293.066
280.707
325.118
376.362
434.623
500.294
573.604
654.552
742.841
837.826
938.48
1043.39
1150.81
1258.67
1364.75
1466.71
1562.21
1648.95
1724.7
1787.22
1834.25
1863.49
1872.82
1860.53
1826.58
1790.57
1766.45
1751.6
1743.43
1739.73
1738.92
1739.91
1742.11
1745.19
1748.76
1752.25
1755.43
1758.33
1761.05
1763.66
1766.37
1769.28
1772.67
1777.52
1780.52
1782.13
1801.72
1855.93
291.685
275.487
318.915
369.049
425.995
490.112
561.594
640.407
726.228
818.4
915.903
1017.36
1121.07
1225.08
1327.28
1425.48
1517.5
1601.22
1674.54
1735.36
1781.49
1810.64
1820.59
1809.59
1777.41
1743.02
1719.99
1705.93
1698.35
1695.1
1694.61
1695.82
1698.17
1701.4
1705.13
1708.76
1712.02
1714.98
1717.74
1720.38
1723.1
1726.02
1729.41
1734.29
1737.26
1738.85
1759.46
1816.11
290.429
270.279
312.732
361.767
417.413
479.995
549.671
626.378
709.768
799.174
893.587
991.662
1091.77
1192.04
1290.49
1385.08
1473.8
1554.67
1625.76
1685.08
1730.52
1759.83
1770.68
1761.18
1730.96
1698.35
1676.52
1663.32
1656.37
1653.59
1653.45
1654.9
1657.42
1660.82
1664.74
1668.55
1671.94
1675
1677.84
1680.54
1683.3
1686.25
1689.66
1694.59
1697.53
1699.14
1720.76
1779.71
289.308
265.093
306.577
354.527
408.891
469.959
537.857
612.491
693.494
780.19
871.582
966.365
1062.97
1159.63
1254.48
1345.63
1431.22
1509.42
1578.46
1636.46
1681.4
1711.04
1723.04
1715.31
1687.22
1656.53
1636
1623.72
1617.44
1615.16
1615.38
1617.08
1619.79
1623.38
1627.53
1631.55
1635.12
1638.31
1641.26
1644.05
1646.89
1649.89
1653.35
1658.35
1661.27
1662.92
1685.52
1746.62
288.332
259.936
300.459
347.34
400.442
460.02
526.171
598.772
677.437
761.486
849.938
941.524
1034.74
1127.93
1219.34
1307.21
1389.84
1465.56
1532.72
1589.58
1634.18
1664.33
1677.64
1671.9
1646.16
1617.52
1598.37
1587.06
1581.49
1579.74
1580.33
1582.29
1585.2
1589.01
1593.42
1597.7
1601.48
1604.85
1607.93
1610.85
1613.78
1616.87
1620.4
1625.48
1628.39
1630.12
1653.69
1716.75
287.511
254.816
294.386
340.216
392.077
450.193
514.631
585.243
661.626
743.1
828.698
917.195
1007.16
1097.01
1185.13
1269.9
1349.75
1423.17
1488.63
1544.49
1588.91
1619.71
1634.48
1630.9
1607.76
1581.28
1563.58
1553.3
1548.47
1547.25
1548.24
1550.48
1553.6
1557.64
1562.35
1566.92
1570.95
1574.54
1577.8
1580.87
1583.93
1587.11
1590.74
1595.92
1598.82
1600.65
1625.16
1689.99
286.851
249.738
288.365
333.162
383.806
440.491
503.255
571.926
646.09
725.064
807.904
893.427
980.266
1066.94
1151.95
1233.78
1311.03
1382.31
1446.23
1501.26
1545.62
1577.2
1593.55
1592.25
1571.87
1547.75
1531.57
1522.37
1518.32
1517.66
1519.05
1521.58
1524.93
1529.21
1534.24
1539.16
1543.49
1547.33
1550.8
1554.05
1557.26
1560.57
1564.32
1569.61
1572.5
1574.48
1599.91
1666.29
286.362
244.711
282.402
326.187
375.64
430.926
492.057
558.84
630.851
707.411
787.595
870.265
954.121
1037.78
1119.83
1198.92
1273.74
1343.05
1405.58
1459.91
1504.34
1536.8
1554.83
1555.92
1538.44
1516.89
1502.29
1494.21
1490.96
1490.89
1492.7
1495.54
1499.12
1503.66
1509.06
1514.36
1519.03
1523.16
1526.88
1530.33
1533.72
1537.18
1541.06
1546.47
1549.36
1551.52
1577.85
1645.54
286.049
239.739
276.504
319.298
367.587
421.509
481.051
546.004
615.934
690.168
767.804
847.748
928.768
1009.57
1088.84
1165.35
1237.92
1305.43
1366.71
1420.47
1465.08
1498.52
1518.32
1521.89
1507.39
1488.57
1475.69
1468.77
1466.35
1466.88
1469.13
1472.3
1476.13
1480.95
1486.73
1492.45
1497.51
1501.97
1505.97
1509.66
1513.25
1516.87
1520.91
1526.44
1529.33
1531.72
1558.92
1627.68
285.92
234.828
270.675
312.501
359.655
412.248
470.249
533.432
601.357
673.358
748.559
825.911
904.245
982.349
1059.02
1133.13
1203.62
1269.48
1329.66
1382.96
1427.85
1462.33
1483.98
1490.1
1478.68
1462.66
1451.7
1445.98
1444.42
1445.58
1448.3
1451.81
1455.91
1461.01
1467.2
1473.4
1478.88
1483.72
1488.04
1491.98
1495.79
1499.59
1503.81
1509.48
1512.36
1515.01
1543.04
1612.64
285.979
229.983
264.921
305.801
351.849
403.153
459.662
521.138
587.137
657.004
729.887
804.782
880.585
956.161
1030.41
1102.29
1170.86
1235.23
1294.44
1347.39
1392.63
1428.24
1451.78
1460.52
1452.26
1439.12
1430.24
1425.79
1425.13
1426.93
1430.14
1434.03
1438.41
1443.82
1450.44
1457.14
1463.11
1468.36
1473.03
1477.26
1481.31
1485.31
1489.71
1495.53
1498.41
1501.34
1530.17
1600.38
286.231
225.209
259.245
299.203
344.175
394.23
449.299
509.134
573.289
641.121
711.807
784.385
857.811
931.029
1003.02
1072.85
1139.67
1202.69
1261.05
1313.75
1359.42
1396.21
1421.7
1433.11
1428.06
1417.85
1411.14
1408.16
1408.41
1410.9
1414.62
1418.9
1423.6
1429.33
1436.4
1443.65
1450.14
1455.85
1460.9
1465.46
1469.76
1473.98
1478.59
1484.56
1487.43
1490.68
1520.23
1590.85
286.68
220.51
253.651
292.711
336.639
385.485
439.166
497.427
559.824
625.725
694.336
764.737
835.944
906.97
976.88
1044.83
1110.06
1171.87
1229.5
1282.04
1328.21
1366.22
1393.69
1407.81
1406.04
1398.8
1394.36
1393.03
1394.24
1397.43
1401.69
1406.41
1411.45
1417.5
1425.06
1432.89
1439.96
1446.16
1451.63
1456.54
1461.12
1465.57
1470.4
1476.52
1479.39
1482.99
1513.2
1584.03
287.328
215.89
248.142
286.326
329.243
376.922
429.27
486.026
546.75
610.825
677.484
745.851
814.995
883.996
951.994
1018.23
1082.02
1142.75
1199.77
1252.23
1298.96
1338.23
1367.72
1384.59
1386.14
1381.91
1379.79
1380.21
1382.56
1386.49
1391.32
1396.5
1401.92
1408.32
1416.37
1424.82
1432.51
1439.27
1445.19
1450.47
1455.36
1460.06
1465.11
1471.38
1474.26
1478.23
1509.06
1579.9
288.178
211.353
242.719
280.053
321.99
368.545
419.614
474.935
534.073
596.428
661.26
727.733
794.969
862.109
928.364
993.041
1055.55
1115.34
1171.85
1224.32
1271.65
1312.22
1343.75
1363.39
1368.33
1367.15
1367.39
1369.65
1373.35
1378.04
1383.48
1389.17
1395
1401.77
1410.31
1419.43
1427.78
1435.13
1441.56
1447.24
1452.45
1457.42
1462.71
1469.13
1472.01
1476.4
1507.76
1578.37
289.231
206.901
237.386
273.893
314.882
360.355
410.201
464.157
521.797
582.537
645.665
710.385
775.867
841.309
905.983
969.265
1030.63
1089.61
1145.71
1198.26
1246.25
1288.15
1321.74
1344.18
1352.53
1354.45
1357.11
1361.29
1366.44
1372.07
1378.14
1384.37
1390.66
1397.83
1406.88
1416.68
1425.76
1433.74
1440.71
1446.83
1452.38
1457.63
1463.17
1469.73
1472.63
1477.46
1509.26
1579.39
290.486
202.537
232.143
267.846
307.92
352.352
401.031
453.693
509.921
569.151
630.699
693.804
757.682
821.584
884.837
946.878
1007.24
1065.54
1121.33
1174.03
1222.73
1265.98
1301.64
1326.91
1338.72
1343.78
1348.92
1355.07
1361.8
1368.54
1375.29
1382.11
1388.9
1396.49
1406.06
1416.57
1426.41
1435.08
1442.63
1449.22
1455.14
1460.69
1466.49
1473.19
1476.12
1481.42
1513.58
1582.96
291.945
198.266
226.99
261.914
301.104
344.538
392.103
443.54
498.443
556.266
616.354
677.981
740.404
802.92
864.908
925.858
985.364
1043.08
1098.66
1151.59
1201.04
1245.67
1283.42
1311.52
1326.84
1335.09
1342.77
1350.96
1359.35
1367.38
1374.92
1382.36
1389.7
1397.76
1407.84
1419.07
1429.72
1439.13
1447.3
1454.4
1460.72
1466.58
1472.66
1479.49
1482.46
1488.27
1520.66
1589.02
293.605
194.088
221.93
256.096
294.432
336.91
383.415
433.696
487.358
543.877
602.622
662.903
724.014
785.296
846.171
906.176
964.954
1022.22
1077.68
1130.9
1181.15
1227.18
1267.03
1297.99
1316.86
1328.34
1338.63
1348.94
1359.07
1368.5
1377.02
1385.11
1393.06
1401.62
1412.22
1424.2
1435.7
1445.9
1454.74
1462.38
1469.11
1475.31
1481.67
1488.62
1491.66
1498
1530.55
1597.62
295.465
190.007
216.961
250.391
287.905
329.467
374.965
424.155
476.659
531.972
589.49
648.554
708.494
768.686
828.595
887.796
945.978
1002.91
1058.34
1111.93
1163.02
1210.47
1252.44
1286.26
1308.72
1323.5
1336.47
1348.96
1360.91
1371.88
1381.59
1390.38
1398.98
1408.09
1419.22
1431.95
1444.33
1455.36
1464.93
1473.15
1480.33
1486.88
1493.53
1500.61
1503.73
1510.63
1543.2
1608.71
297.523
186.025
212.085
244.799
281.52
322.205
366.746
414.911
466.337
520.54
576.942
634.913
693.815
753.06
812.144
870.68
928.394
985.093
1040.6
1094.61
1146.59
1195.49
1239.59
1276.3
1302.39
1320.52
1336.25
1351.02
1364.87
1377.47
1388.49
1398.17
1407.46
1417.17
1428.84
1442.32
1455.61
1467.53
1477.87
1486.71
1494.38
1501.31
1508.25
1515.46
1518.69
1526.17
1558.69
1622.42
299.774
182.143
207.3
239.319
275.275
315.119
358.753
405.956
456.38
509.565
564.957
621.955
679.95
738.384
796.781
854.785
912.154
968.736
1024.4
1078.92
1131.84
1182.22
1228.45
1268.07
1297.83
1319.37
1337.95
1355.08
1370.92
1385.24
1397.73
1408.48
1418.52
1428.87
1441.1
1455.32
1469.56
1482.41
1493.57
1503.09
1511.28
1518.6
1525.85
1533.19
1536.55
1544.61
1576.98
1638.79
302.215
178.364
202.605
233.947
269.166
308.207
350.98
397.279
446.775
499.029
553.514
609.653
666.866
724.618
782.461
840.062
897.209
953.783
1009.7
1064.8
1118.7
1170.59
1218.99
1261.53
1295
1320.02
1341.53
1361.12
1379.06
1395.2
1409.29
1421.33
1432.15
1443.22
1456.01
1470.98
1486.18
1500.01
1512.06
1522.3
1531.04
1538.79
1546.37
1553.86
1557.38
1565.99
1598.15
1657.98
304.842
174.691
198.001
228.684
263.19
301.461
343.418
388.87
437.507
488.914
542.588
597.977
654.525
711.721
769.137
826.462
883.506
940.179
996.439
1052.19
1107.13
1160.57
1211.15
1256.64
1293.87
1322.43
1346.97
1369.12
1389.26
1407.32
1423.12
1436.59
1448.39
1460.21
1473.61
1489.31
1505.49
1520.35
1533.34
1544.36
1553.71
1561.93
1569.86
1577.53
1581.23
1590.34
1622.24
1680.11
307.65
171.124
193.486
223.526
257.344
294.877
336.06
380.717
428.561
479.198
532.151
586.893
642.889
699.648
756.761
813.931
870.988
927.868
984.566
1041.04
1097.09
1152.1
1204.89
1253.35
1294.4
1326.58
1354.23
1379.06
1401.51
1421.59
1439.22
1454.27
1467.25
1479.88
1493.93
1510.35
1527.51
1543.44
1557.43
1569.3
1579.31
1588.04
1596.37
1604.27
1608.17
1617.73
1649.32
1705.38
310.633
167.666
189.059
218.471
251.623
288.449
328.895
372.806
419.917
469.858
522.175
576.366
631.917
688.352
745.278
802.411
859.595
916.788
974.02
1031.3
1088.51
1145.15
1200.18
1251.64
1296.54
1332.42
1363.31
1390.92
1415.79
1438.02
1457.58
1474.38
1488.76
1502.24
1516.98
1534.12
1552.26
1569.31
1584.36
1597.15
1607.89
1617.2
1625.97
1634.15
1638.28
1648.21
1679.48
1734.01
313.786
164.319
184.719
213.516
246.024
282.169
321.915
365.126
411.559
460.87
512.63
566.359
621.563
677.782
734.633
791.842
849.265
906.877
964.737
1022.91
1081.34
1139.66
1196.96
1251.45
1300.26
1339.92
1374.15
1404.67
1432.09
1456.58
1478.19
1496.88
1512.82
1527.31
1542.8
1560.66
1579.78
1597.97
1614.16
1627.95
1639.5
1649.44
1658.72
1667.27
1671.65
1681.86
1712.84
1766.2
317.103
161.084
180.466
208.66
240.541
276.031
315.109
357.66
403.467
452.209
503.484
556.834
611.784
667.886
724.768
782.163
839.933
898.069
956.654
1015.8
1075.52
1135.58
1195.19
1252.75
1305.53
1349.05
1386.73
1420.29
1450.38
1477.27
1501.04
1521.73
1539.4
1555.11
1571.41
1590
1610.09
1629.46
1646.85
1661.72
1674.18
1684.85
1694.72
1703.73
1708.39
1718.78
1749.5
1802.15
320.578
157.965
176.297
203.898
235.171
270.029
308.468
350.396
395.621
443.85
494.705
547.751
602.53
658.61
715.624
773.308
831.532
890.294
949.701
1009.91
1071
1132.84
1194.81
1255.49
1312.28
1359.76
1401.01
1437.74
1470.65
1500.05
1526.12
1548.92
1568.51
1585.66
1602.84
1622.17
1643.22
1663.8
1682.46
1698.51
1711.97
1723.46
1734.02
1743.62
1748.6
1759.09
1789.6
1842.01
324.204
154.963
172.212
199.229
229.91
264.155
301.981
343.319
388.002
435.766
486.258
539.068
593.755
649.899
707.137
765.211
823.99
883.48
943.807
1005.16
1067.71
1131.4
1195.77
1259.6
1320.48
1372
1416.95
1456.99
1492.85
1524.91
1553.4
1578.45
1600.13
1618.97
1637.1
1657.21
1679.21
1701.01
1720.99
1738.32
1752.91
1765.33
1776.69
1787.02
1792.39
1802.91
1833.26
1885.85
327.975
152.079
168.209
194.65
224.752
258.404
295.639
336.414
380.59
427.931
478.112
530.745
585.409
641.694
699.245
757.802
817.234
877.552
938.896
1001.49
1065.56
1131.18
1198.01
1265.05
1330.06
1385.73
1434.51
1478
1516.97
1551.83
1582.87
1610.29
1634.2
1654.91
1674.19
1695.13
1718.07
1741.09
1762.45
1781.17
1797
1810.48
1822.77
1833.97
1839.81
1850.34
1880.58
1933.7
331.886
149.317
164.288
190.159
219.695
252.767
289.431
329.668
373.367
420.32
470.232
522.74
577.443
633.94
691.883
751.01
811.19
872.432
934.89
998.819
1064.51
1132.11
1201.47
1271.76
1340.97
1400.88
1453.62
1500.71
1542.94
1580.75
1614.49
1644.41
1670.67
1693.43
1714.15
1735.95
1759.82
1784.07
1806.86
1827.04
1844.25
1858.92
1872.26
1884.5
1890.93
1901.48
1931.63
1985.49
335.929
146.679
160.449
185.752
214.733
247.241
283.349
323.067
366.311
412.906
462.586
515.013
569.806
626.579
684.985
744.764
805.779
868.039
931.706
997.063
1064.45
1134.12
1206.07
1279.67
1353.15
1417.39
1474.23
1525.08
1570.72
1611.64
1648.22
1680.77
1709.5
1734.55
1756.96
1779.67
1804.48
1829.94
1854.18
1875.92
1894.62
1910.62
1925.16
1938.6
1945.75
1956.38
1986.46
2041.03
340.099
144.166
156.689
181.428
209.864
241.817
277.384
316.598
359.407
405.667
455.143
507.524
562.451
619.551
678.485
738.989
800.922
864.29
929.26
996.135
1065.31
1137.13
1211.73
1288.7
1366.51
1435.19
1496.26
1551.03
1600.25
1644.43
1684.01
1719.33
1750.67
1778.17
1802.53
1826.3
1852.04
1878.69
1904.39
1927.75
1948.07
1965.54
1981.41
1996.19
2004.23
2015.07
2045.06
2100.13
344.39
141.782
153.009
177.185
205.082
236.491
271.526
310.248
352.636
398.577
447.87
500.233
555.329
612.802
672.317
733.612
796.538
861.098
927.46
995.947
1067
1141.05
1218.37
1298.77
1380.97
1454.19
1519.63
1578.48
1631.45
1679.07
1721.79
1760.03
1794.1
1824.21
1850.74
1875.83
1902.51
1930.31
1957.46
1982.49
2004.53
2023.6
2040.92
2057.19
2066.3
2077.5
2107.35
2162.61
348.796
139.529
149.408
173.02
200.387
231.258
265.769
304.008
345.983
391.616
440.74
493.103
548.394
606.273
666.415
728.557
792.546
858.376
926.215
996.402
1069.42
1145.78
1225.9
1309.79
1396.44
1474.31
1544.25
1607.34
1664.24
1715.46
1761.5
1802.8
1839.75
1872.58
1901.52
1928.24
1955.87
1984.79
2013.37
2040.08
2063.91
2084.71
2103.6
2121.49
2131.87
2143.6
2173.27
2228.39
353.313
137.409
145.886
168.933
195.773
226.114
260.106
297.865
339.432
384.763
433.724
486.098
541.6
599.911
660.716
723.752
788.862
856.032
925.429
997.402
1072.47
1151.22
1234.21
1321.65
1412.81
1495.42
1570.02
1637.51
1698.51
1753.51
1803.03
1847.56
1887.51
1923.19
1954.82
1983.5
2012.12
2042.13
2072.08
2100.46
2126.15
2148.78
2169.36
2189.02
2200.86
2213.27
2242.7
2297.49
357.935
135.425
142.442
164.92
191.24
221.053
254.529
291.811
332.97
377.998
426.797
479.185
534.906
593.664
655.155
719.123
785.403
853.977
925.004
998.843
1076.04
1157.27
1243.19
1334.25
1429.98
1517.42
1596.8
1668.86
1734.15
1793.11
1846.28
1894.19
1937.3
1975.97
2010.45
2041.39
2071.25
2102.33
2133.61
2163.62
2191.2
2215.76
2238.14
2259.72
2273.22
2286.43
2315.55
2369.96
362.658
133.579
139.077
160.981
186.783
216.072
249.034
285.837
326.585
371.304
419.936
472.332
528.271
587.48
649.672
714.597
782.087
852.116
924.839
1000.62
1080.03
1163.8
1252.74
1347.46
1447.81
1540.18
1624.47
1701.27
1771.01
1834.13
1891.13
1942.57
1988.98
2030.78
2068.25
2101.76
2133.24
2165.37
2197.93
2229.55
2259.02
2285.6
2309.89
2333.55
2348.93
2363.07
2391.82
2445.78
367.478
131.874
135.792
157.114
182.402
211.169
243.616
279.936
320.266
364.668
413.119
465.511
521.657
581.312
644.209
710.105
778.833
850.359
924.833
1002.62
1084.31
1170.71
1262.72
1361.16
1466.17
1563.55
1652.88
1734.57
1808.96
1876.4
1937.41
1992.57
2042.44
2087.49
2128.08
2164.49
2198
2231.23
2265.03
2298.21
2329.56
2358.22
2384.51
2410.4
2427.92
2443.14
2471.49
2524.93
372.391
130.312
132.586
153.318
178.094
206.341
238.271
274.103
314.005
358.074
406.328
458.697
515.032
575.118
638.711
705.579
775.56
848.613
924.881
1004.73
1088.77
1177.85
1272.99
1375.21
1484.91
1587.37
1681.86
1768.6
1847.81
1919.77
1984.97
2044.01
2097.49
2145.95
2189.78
2229.3
2265.24
2299.84
2334.87
2369.54
2402.74
2433.52
2461.89
2490.13
2510.04
2526.52
2554.48
2607.32
377.394
128.895
129.461
149.593
173.858
201.584
232.995
268.332
307.793
351.513
399.547
451.868
508.363
568.855
633.124
700.955
772.19
846.787
924.881
1006.83
1093.28
1185.1
1283.43
1389.45
1503.87
1611.47
1711.24
1803.17
1887.36
1964.03
2033.61
2096.71
2153.96
2205.96
2253.17
2295.94
2334.73
2371.16
2407.39
2443.51
2478.51
2511.39
2541.9
2572.59
2595.15
2613.08
2640.7
2692.86
382.484
127.625
126.416
145.937
169.692
196.898
227.785
262.618
301.626
344.975
392.763
445.003
501.625
562.488
627.402
696.173
768.651
844.793
924.729
1008.82
1097.7
1192.32
1293.87
1403.73
1522.87
1635.67
1740.8
1838.06
1927.41
2008.97
2083.12
2150.45
2211.64
2267.33
2318.04
2364.19
2406.14
2444.9
2482.51
2520.05
2556.79
2591.76
2624.44
2657.63
2683.1
2702.71
2730.01
2781.39
387.658
126.504
123.454
142.35
165.596
192.281
222.64
256.96
295.496
338.453
385.964
438.086
494.793
555.983
621.501
691.176
764.87
842.545
924.326
1010.57
1101.92
1199.36
1304.16
1417.87
1541.74
1659.76
1770.34
1873.06
1967.72
2054.35
2133.25
2205
2270.29
2329.82
2384.16
2433.81
2479.13
2520.72
2560.14
2599.08
2637.5
2674.54
2709.4
2745.08
2773.72
2795.28
2822.39
2872.83
392.914
125.535
120.576
138.832
161.569
187.732
217.56
251.358
289.408
331.948
379.151
431.118
487.867
549.338
615.414
685.951
760.83
840.018
923.64
1012.05
1105.9
1206.18
1314.27
1431.85
1560.43
1683.72
1799.82
1908.13
2008.28
2100.15
2184
2260.36
2329.94
2393.46
2451.58
2504.84
2553.66
2598.49
2640.31
2680.82
2720.89
2759.93
2796.99
2835.09
2867.14
2890.95
2917.99
2967.4
398.251
124.718
117.783
135.383
157.61
183.252
212.544
245.81
283.357
325.456
372.32
424.09
480.831
542.53
609.108
680.455
756.474
837.142
922.585
1013.15
1109.5
1212.66
1324.05
1445.5
1578.78
1707.35
1829.05
1943.06
2048.84
2146.15
2235.15
2316.31
2390.36
2458.04
2520.07
2577.07
2629.51
2677.82
2722.63
2765.2
2806.89
2847.88
2887.14
2927.54
2963.2
2989.58
3016.79
3065.1
403.667
124.054
115.077
132.001
153.719
178.84
207.591
240.315
277.343
318.976
365.464
416.993
473.674
535.539
602.556
674.65
751.75
833.85
921.078
1013.79
1112.63
1218.65
1333.35
1458.66
1596.6
1730.45
1857.8
1977.61
2089.16
2192.09
2286.42
2372.59
2451.29
2523.3
2589.4
2650.25
2706.42
2758.35
2806.55
2851.82
2895.45
2938.33
2979.79
3022.32
3061.7
3091
3118.69
3165.92
409.161
123.545
112.46
128.688
149.894
174.494
202.701
234.874
271.365
312.505
358.582
409.823
466.386
528.353
595.736
668.503
746.614
830.081
919.044
1013.85
1115.17
1224.04
1342.02
1471.17
1613.71
1752.83
1885.85
2011.54
2129
2237.7
2337.56
2428.94
2512.48
2588.99
2659.3
2724.14
2784.14
2839.8
2891.6
2940.14
2986.31
3031.22
3074.86
3119.34
3162.45
3195.02
3223.58
3269.89
414.731
123.191
109.934
125.442
146.137
170.214
197.874
229.485
265.423
306.045
351.673
402.578
458.963
520.961
588.632
661.988
741.027
825.784
916.412
1013.26
1117
1228.7
1349.93
1482.86
1629.94
1774.27
1912.98
2044.6
2168.08
2282.71
2388.28
2485.05
2573.63
2654.83
2729.5
2798.46
2862.39
2921.88
2977.41
3029.51
3078.86
3126.32
3172.29
3218.52
3265.26
3301.41
3331.32
3376.96
420.377
122.992
107.501
122.264
142.444
166
193.109
224.15
259.518
299.595
344.739
395.258
451.403
513.357
581.232
655.087
734.958
820.913
913.12
1011.94
1118.04
1232.5
1356.92
1493.57
1645.08
1794.57
1938.94
2076.55
2206.13
2326.83
2438.28
2540.64
2634.45
2720.51
2799.71
2872.92
2940.89
3004.29
3063.64
3119.47
3172.33
3222.92
3271.75
3319.82
3369.93
3409.91
3441.67
3487.05
426.098
122.947
105.163
119.153
138.818
161.851
188.406
218.869
253.651
293.159
337.781
387.865
443.707
505.54
573.529
647.783
728.383
815.43
909.116
1009.81
1118.19
1235.33
1362.87
1503.16
1658.98
1813.53
1963.52
2107.12
2242.88
2369.77
2487.26
2595.39
2694.62
2785.73
2869.62
2947.21
3019.34
3086.73
3149.98
3209.64
3266.2
3320.24
3372.36
3422.7
3476.18
3520.24
3554.35
3599.96
431.893
123.055
102.923
116.111
135.256
157.768
183.767
213.643
247.824
286.739
330.803
380.403
435.879
497.512
565.522
640.07
721.285
809.307
904.355
1006.82
1117.37
1237.09
1367.66
1511.46
1671.45
1830.95
1986.49
2136.06
2278.05
2411.22
2534.9
2648.97
2753.82
2850.16
2938.91
3021.03
3097.43
3168.9
3236.11
3299.66
3360.05
3417.74
3473.4
3526.37
3583.11
3631.39
3668.33
3714.82
437.762
123.315
100.784
113.138
131.759
153.751
179.191
208.474
242.04
280.338
323.81
372.877
427.923
489.278
557.213
631.946
713.654
802.523
898.803
1002.9
1115.5
1237.69
1371.16
1518.35
1682.34
1846.63
2007.63
2163.13
2311.36
2450.9
2580.89
2701.07
2811.71
2913.47
3007.25
3094.05
3174.83
3250.47
3321.71
3389.2
3453.48
3514.96
3574.32
3630.28
3690.15
3742.59
3782.58
3830.51
443.704
123.726
98.7481
110.234
128.326
149.798
174.678
203.362
236.301
273.96
316.807
365.296
419.849
480.845
548.609
623.412
705.488
795.065
892.433
998.022
1112.53
1237.05
1373.27
1523.69
1691.49
1860.42
2026.73
2188.1
2342.56
2488.52
2624.92
2751.36
2867.96
2975.32
3074.3
3165.93
3251.22
3331.11
3406.44
3477.92
3546.11
3611.45
3674.62
3733.88
3796.93
3853.47
3896.59
3946.37
449.719
124.284
96.8184
107.4
124.957
145.91
170.23
198.31
230.609
267.609
309.8
357.665
411.665
472.225
539.72
614.478
696.788
786.93
885.232
992.153
1108.4
1235.09
1373.91
1527.37
1698.77
1872.13
2043.61
2210.73
2371.38
2523.78
2666.68
2799.5
2922.23
3035.36
3139.72
3236.33
3326.25
3410.5
3489.99
3565.48
3637.61
3706.82
3773.84
3836.63
3902.95
3963.56
4009.87
4061.79
455.807
124.987
94.9978
104.636
121.652
142.087
165.846
193.318
224.968
261.291
302.796
349.995
403.383
463.428
530.559
605.156
687.565
778.119
877.191
985.273
1103.09
1231.76
1372.99
1529.3
1704.06
1881.63
2058.08
2230.83
2397.59
2556.41
2705.88
2845.19
2974.19
3093.26
3203.17
3304.91
3399.6
3488.3
3572
3651.54
3727.62
3800.7
3871.55
3938.01
4007.68
4072.35
4121.94
4176.12
461.966
125.831
93.2893
101.945
118.41
138.328
161.527
188.387
219.379
255.008
295.801
342.293
395.013
454.471
521.141
595.461
677.833
768.643
868.314
977.374
1096.57
1227.03
1370.46
1529.4