/*--------------------------------*- C++ -*----------------------------------*\
  =========                 |
  \\      /  F ield         | OpenFOAM: The Open Source CFD Toolbox
   \\    /   O peration     | Website:  https://openfoam.org
    \\  /    A nd           | Version:  10
     \\/     M anipulation  |
\*---------------------------------------------------------------------------*/
FoamFile
{
    format      ascii;
    class       volScalarField;
    location    "10";
    object      p;
}
// * * * * * * * * * * * * * * * * * * * * * * * * * * * * * * * * * * * * * //

dimensions      [0 2 -2 0 0 0 0];

internalField   nonuniform List<scalar> 
38016
(
0.333642
-0.619273
-0.26028
-0.475748
-0.615703
-0.840616
-1.05912
-1.32668
-1.50809
-1.61106
-1.55233
-1.1512
-0.439014
0.614319
1.96466
3.44748
4.74076
5.72086
6.06665
5.55717
4.55855
2.84086
-0.260938
-1.77275
3.20581
22.5359
55.9338
101.825
157.987
222.773
294.733
372.391
453.996
537.701
621.641
704.255
784.302
860.864
933.143
1000.46
1062.36
1118.65
1169.16
1213.55
1254.49
1298.77
1347.41
1397.76
0.3419
-0.619707
-0.258606
-0.476208
-0.617958
-0.842294
-1.0631
-1.32964
-1.51269
-1.61583
-1.55385
-1.14877
-0.42957
0.635593
1.99783
3.48917
4.78394
5.75274
6.06213
5.48554
4.386
2.53713
-0.819983
-2.5703
2.01134
21.2499
54.5625
100.68
157.17
222.376
294.855
373.102
455.34
539.694
624.291
707.543
788.205
865.36
938.21
1006.09
1068.57
1125.47
1176.63
1221.91
1264.86
1311.91
1362.61
1413.94
0.349588
-0.620316
-0.257042
-0.476751
-0.620303
-0.844072
-1.06719
-1.33271
-1.51745
-1.6208
-1.55557
-1.14664
-0.420427
0.656513
2.03072
3.53063
4.82721
5.78478
6.05784
5.41419
4.21367
2.23086
-1.3814
-3.38162
0.819231
19.9575
53.1722
99.473
156.227
221.764
294.645
373.34
456.05
540.874
625.94
709.638
790.725
868.286
941.53
1009.8
1072.7
1130.08
1181.82
1228.18
1273.43
1322.75
1374.31
1425.28
0.357626
-0.62066
-0.255342
-0.477201
-0.622555
-0.84579
-1.07123
-1.3358
-1.52223
-1.62577
-1.55733
-1.1445
-0.411179
0.677692
2.06406
3.57277
4.87145
5.81781
6.05444
5.34301
4.04024
1.9189
-1.95252
-4.21924
-0.433526
18.5661
51.6539
98.0903
155.056
220.852
294.041
373.066
456.108
541.246
626.61
710.58
791.917
869.71
943.175
1011.68
1074.83
1132.54
1184.8
1232.35
1279.65
1330.25
1381.52
1431.08
0.365297
-0.621248
-0.253779
-0.477772
-0.624913
-0.847629
-1.07535
-1.33899
-1.52705
-1.63072
-1.55899
-1.14217
-0.401568
0.699405
2.09821
3.61604
4.91727
5.85269
6.05323
5.27421
3.86932
1.60666
-2.52392
-5.07129
-1.71149
17.1075
50.0329
96.539
153.643
219.606
292.993
372.22
455.453
540.752
626.259
710.343
791.777
869.65
943.187
1011.77
1075.05
1132.98
1185.71
1234.31
1283
1333.85
1383.91
1431.38
0.373296
-0.621529
-0.252024
-0.478175
-0.627075
-0.84928
-1.07926
-1.342
-1.53164
-1.6354
-1.56038
-1.13949
-0.391497
0.721757
2.13323
3.66049
4.96474
5.88951
6.05436
5.20793
3.70115
1.29457
-3.09486
-5.93555
-3.01182
15.5892
48.3201
94.8345
152.007
218.053
291.534
370.846
454.14
539.468
624.977
709.04
790.437
868.256
941.731
1010.26
1073.53
1131.55
1184.63
1233.91
1283.17
1333.36
1381.53
1426.43
0.380957
-0.622051
-0.250407
-0.478711
-0.629358
-0.851085
-1.08329
-1.34518
-1.53637
-1.64019
-1.56185
-1.13684
-0.381326
0.744346
2.16873
3.70576
5.01351
5.92799
6.05765
5.14426
3.53611
0.983369
-3.66405
-6.80994
-4.33175
14.0134
46.5173
92.9784
150.149
216.193
289.668
368.952
452.185
537.414
622.797
706.713
787.95
865.591
938.873
1007.21
1070.32
1128.28
1181.43
1230.87
1279.87
1328.69
1374.49
1416.54
0.388944
-0.622275
-0.2486
-0.479087
-0.631451
-0.852715
-1.08713
-1.34821
-1.5409
-1.64476
-1.5631
-1.1339
-0.370753
0.767516
2.20508
3.75225
5.06409
5.96877
6.06394
5.08424
3.37564
0.675013
-4.22862
-7.69073
-5.66635
12.3839
44.6269
90.9699
148.065
214.021
287.387
366.529
449.58
534.591
619.726
703.378
784.338
861.677
934.634
1002.63
1065.4
1123.05
1175.92
1224.91
1272.95
1319.85
1363.02
1402.08
0.396598
-0.622744
-0.246929
-0.479595
-0.63366
-0.854499
-1.09108
-1.35141
-1.54558
-1.64944
-1.56445
-1.13101
-0.360118
0.790901
2.24191
3.79965
5.11623
6.01169
6.07322
5.02823
3.22056
0.370895
-4.78638
-8.57452
-7.01062
10.7061
42.6539
88.813
145.758
211.538
284.692
363.581
446.335
531.014
615.787
699.066
779.635
856.549
929.038
996.521
1058.74
1115.78
1167.92
1215.91
1262.43
1307.07
1347.47
1383.56
0.40458
-0.622921
-0.245068
-0.479941
-0.635681
-0.856115
-1.09485
-1.35446
-1.55008
-1.65395
-1.56564
-1.12791
-0.349168
0.814779
2.27955
3.84829
5.17034
6.05732
6.08632
4.9773
3.07242
0.0732334
-5.33392
-9.45664
-8.35778
8.98695
40.6049
86.5131
143.231
208.746
281.587
360.114
442.46
526.699
611.007
693.808
773.873
850.233
922.095
988.864
1050.26
1106.34
1157.33
1203.85
1248.45
1290.63
1328.27
1361.51
0.41223
-0.623341
-0.243342
-0.480422
-0.637817
-0.857891
-1.09875
-1.35771
-1.55475
-1.65862
-1.567
-1.12496
-0.338256
0.838771
2.3176
3.89787
5.2262
6.10558
6.10334
4.93207
2.93241
-0.215979
-5.86817
-10.3322
-9.70122
7.23374
38.4863
84.0756
140.488
205.648
278.076
356.136
437.969
521.668
605.413
687.634
767.081
842.745
913.8
979.624
1039.91
1094.68
1144.13
1188.82
1231.27
1270.94
1305.92
1336.5
0.420209
-0.623471
-0.241425
-0.48074
-0.639766
-0.859505
-1.10247
-1.36084
-1.55929
-1.66317
-1.56827
-1.12191
-0.327156
0.863125
2.35636
3.94868
5.28422
6.15705
6.12518
4.89378
2.80243
-0.494012
-6.38489
-11.1952
-11.0323
5.45573
36.3069
81.5083
137.534
202.251
274.166
351.658
432.88
515.945
599.035
680.575
759.278
834.089
904.136
968.761
1027.64
1080.77
1128.37
1171
1211.19
1248.38
1280.85
1309.01
0.427857
-0.623843
-0.239643
-0.481193
-0.64183
-0.861284
-1.10632
-1.36418
-1.56404
-1.66795
-1.56981
-1.11913
-0.316255
0.887425
2.39541
4.00038
5.34416
6.21166
6.15205
4.86323
2.68397
-0.758305
-6.88014
-12.0394
-12.3425
3.66265
34.0752
78.8189
134.377
198.561
269.867
346.693
427.211
509.554
591.9
672.652
750.477
824.26
893.075
956.239
1013.42
1064.64
1110.18
1150.63
1188.53
1223.35
1253.5
1279.46
0.435834
-0.62393
-0.237669
-0.481482
-0.643709
-0.862908
-1.11002
-1.36742
-1.56871
-1.67269
-1.57137
-1.11641
-0.305354
0.911875
2.43497
4.05324
5.40643
6.27004
6.18494
4.84188
2.57926
-1.00557
-7.34886
-12.8573
-13.6216
1.86594
31.8019
76.0172
131.025
194.587
265.19
341.257
420.984
502.521
584.031
663.881
740.678
813.239
880.589
942.033
997.264
1046.38
1089.72
1127.96
1163.63
1196.21
1224.23
1248.22
0.44348
-0.624255
-0.235831
-0.481906
-0.645706
-0.864707
-1.11387
-1.3709
-1.57363
-1.67774
-1.57333
-1.11415
-0.294882
0.936013
2.47458
4.10687
5.47073
6.33212
6.22412
4.83072
2.49015
-1.23271
-7.78633
-13.6413
-14.8595
0.077219
29.4968
73.1124
127.485
190.338
260.145
335.365
414.218
494.864
575.443
654.266
729.868
800.999
866.65
926.14
979.227
1026.1
1067.2
1103.26
1136.8
1167.29
1193.37
1215.6
0.451455
-0.624295
-0.233797
-0.482166
-0.647519
-0.866358
-1.11758
-1.37432
-1.57853
-1.68285
-1.57545
-1.11215
-0.284678
0.959991
2.5144
4.16145
5.53742
6.39849
6.27063
4.8314
2.41912
-1.43594
-8.18683
-14.3829
-16.0448
-1.69059
27.1714
70.1151
123.768
185.822
254.744
329.032
406.93
486.601
566.144
643.798
718.024
787.511
851.238
908.579
959.382
1003.94
1042.82
1076.77
1108.3
1136.88
1161.2
1181.86
0.459101
-0.624572
-0.231902
-0.482563
-0.649453
-0.868195
-1.12145
-1.37802
-1.58377
-1.68839
-1.57814
-1.11085
-0.275217
0.98329
2.5539
4.21653
5.60615
6.46906
6.32478
4.84502
2.36824
-1.61174
-8.54512
-15.0735
-17.1666
-3.42491
24.8357
67.034
119.881
181.047
248.996
322.27
399.132
477.735
556.126
632.456
705.113
772.743
834.35
889.39
937.831
980.083
1016.79
1048.75
1078.4
1105.22
1127.97
1147.23
0.467077
-0.624569
-0.22981
-0.482794
-0.651206
-0.869897
-1.12521
-1.3817
-1.58906
-1.6941
-1.5812
-1.11009
-0.266388
1.006
2.59316
4.27221
5.67718
6.54433
6.38758
4.87327
2.34012
-1.75608
-8.85519
-15.704
-18.2131
-5.11256
22.5004
63.8782
115.831
176.02
242.91
315.087
390.83
468.265
545.371
620.209
691.097
756.672
815.995
868.634
914.687
954.672
989.299
1019.39
1047.31
1072.53
1093.86
1111.89
0.474725
-0.624799
-0.227857
-0.483165
-0.653085
-0.871796
-1.12917
-1.38572
-1.59476
-1.70039
-1.58504
-1.11034
-0.25872
1.02752
2.63155
4.32791
5.75004
6.62411
6.45923
4.91724
2.33678
-1.86539
-9.11188
-16.2658
-19.1739
-6.74157
20.1737
60.654
111.622
170.742
236.486
307.483
382.017
458.172
533.847
607.012
675.938
739.282
796.197
846.386
890.073
927.868
960.529
988.883
1015.22
1038.99
1059.04
1075.97
0.4827
-0.624751
-0.225706
-0.48337
-0.654787
-0.873574
-1.13303
-1.38976
-1.60061
-1.70701
-1.58949
-1.11149
-0.252159
1.04787
2.66905
4.38365
5.82487
6.70876
6.54062
4.97844
2.36061
-1.93582
-9.30964
-16.7502
-20.0383
-8.3003
17.8636
57.3663
107.256
165.213
229.722
299.451
372.678
447.427
521.51
592.817
659.598
720.566
774.995
822.728
864.109
899.816
930.638
957.395
982.283
1004.73
1023.64
1039.58
0.49035
-0.624937
-0.223694
-0.483717
-0.65662
-0.875565
-1.13712
-1.39419
-1.60699
-1.71437
-1.59498
-1.11406
-0.247299
1.06636
2.70492
4.4387
5.90107
6.79793
6.63177
5.05773
2.41321
-1.96438
-9.44433
-17.1497
-20.798
-9.77943
15.5745
54.016
102.729
159.426
222.608
290.973
362.782
435.985
508.306
577.573
642.044
700.527
752.433
797.746
836.907
870.646
899.76
925.056
948.627
969.886
987.763
1002.84
0.498326
-0.624849
-0.221483
-0.483898
-0.658281
-0.87745
-1.14115
-1.39871
-1.61362
-1.72225
-1.60139
-1.11795
-0.24415
1.08291
2.73901
4.4929
5.97855
6.89176
6.73332
5.15628
2.49636
-1.94812
-9.51205
-17.458
-21.4457
-11.171
13.3097
50.6016
98.0351
153.368
215.123
282.021
352.288
423.791
494.174
561.227
623.253
679.179
728.564
771.52
808.567
840.466
868.003
891.968
914.344
934.527
951.481
965.783
0.505979
-0.624992
-0.219413
-0.484224
-0.66008
-0.879566
-1.14543
-1.40369
-1.62089
-1.73106
-1.60916
-1.12373
-0.243374
1.09673
2.77044
4.54535
6.05645
6.98957
6.8449
5.27441
2.61082
-1.88533
-9.51093
-17.6708
-21.9777
-12.4709
11.068
47.1166
93.1601
147.017
207.239
272.551
341.139
410.778
479.047
543.73
603.207
656.542
703.442
744.126
779.175
809.359
835.445
858.2
879.492
898.703
914.83
928.442
0.513955
-0.624864
-0.217141
-0.484385
-0.661712
-0.881595
-1.14969
-1.40884
-1.62856
-1.74061
-1.61819
-1.13138
-0.245052
1.10763
2.79891
4.59568
6.13441
7.09112
6.96659
5.41251
2.75724
-1.7748
-9.44
-17.7858
-22.3926
-13.6774
8.84613
43.5521
88.0868
140.348
198.916
262.513
329.268
396.872
462.86
525.039
581.896
632.642
677.118
715.631
748.802
777.392
802.141
823.792
844.097
862.426
877.809
890.806
0.521611
-0.624965
-0.215011
-0.484694
-0.66349
-0.883873
-1.15424
-1.41451
-1.637
-1.75133
-1.62897
-1.14149
-0.249922
1.11471
2.82336
4.64274
6.21122
7.19525
7.09736
5.56985
2.93483
-1.61709
-9.30086
-17.8042
-22.6944
-14.7943
6.63614
39.8939
82.7916
133.324
190.104
251.839
316.598
381.994
445.547
505.118
559.32
607.509
649.642
686.097
717.507
744.619
768.136
788.776
808.178
825.696
840.393
852.828
0.529593
-0.624801
-0.212679
-0.484838
-0.665107
-0.886084
-1.15882
-1.42042
-1.64597
-1.76303
-1.6414
-1.15407
-0.258134
1.11765
2.84329
4.68589
6.2861
7.30111
7.23642
5.74548
3.14223
-1.41394
-9.09671
-17.7299
-22.8907
-15.8298
4.42729
36.1263
77.249
125.907
180.749
240.459
303.046
366.065
427.048
483.937
535.482
581.173
621.062
655.573
685.342
711.085
733.467
753.183
771.757
788.529
802.593
814.502
0.537258
-0.624864
-0.21049
-0.485135
-0.666879
-0.888564
-1.16371
-1.42694
-1.65586
-1.77614
-1.65599
-1.16977
-0.270505
1.11544
2.85748
4.72369
6.35737
7.40687
7.38168
5.93701
3.37617
-1.16963
-8.83423
-17.5712
-22.9952
-16.7991
2.20271
32.2295
71.4295
118.052
170.788
228.295
288.529
349.009
407.309
461.475
510.389
553.661
591.416
624.104
652.347
676.825
698.16
717.025
734.83
750.899
764.358
775.759
0.545244
-0.624667
-0.208096
-0.485267
-0.668495
-0.890995
-1.16867
-1.43378
-1.66643
-1.79048
-1.67268
-1.18864
-0.287254
1.10762
2.86521
4.75512
6.42371
7.51084
7.53106
6.14152
3.63236
-0.890247
-8.52263
-17.3401
-23.0258
-17.723
-0.0586513
28.1824
65.3056
109.719
160.162
215.272
272.967
330.76
386.289
437.715
484.049
524.996
560.733
591.716
618.542
641.85
662.218
680.295
697.38
712.782
725.663
736.577
0.552917
-0.624694
-0.205847
-0.485555
-0.670276
-0.893717
-1.174
-1.44131
-1.67807
-1.80651
-1.692
-1.21136
-0.309266
1.09305
2.86501
4.7784
6.48284
7.61023
7.68099
6.35429
3.90411
-0.585051
-8.17533
-17.054
-23.0066
-18.6298
-2.38593
23.9591
58.8493
100.867
148.815
201.322
256.293
311.262
363.953
412.65
456.472
495.197
529.031
558.42
583.929
606.149
625.617
642.958
659.365
674.132
686.458
696.9
0.560911
-0.624469
-0.203392
-0.485678
-0.671907
-0.896408
-1.17943
-1.44924
-1.69054
-1.82404
-1.71387
-1.238
-0.336824
1.07116
2.85593
4.7921
6.53276
7.70228
7.82766
6.5697
4.18326
-0.265647
-7.80876
-16.7347
-22.966
-19.5522
-4.81354
19.5302
52.0359
91.4647
136.702
186.392
238.456
290.476
340.284
386.278
427.666
464.276
496.319
524.222
548.507
569.718
588.347
604.998
620.762
634.916
646.7
656.678
0.568595
-0.624465
-0.201082
-0.48596
-0.67371
-0.899407
-1.18526
-1.45793
-1.70423
-1.84352
-1.73883
-1.26928
-0.370872
1.04066
2.83629
4.79399
6.57042
7.78295
7.96554
6.78002
4.45885
0.052684
-7.444
-16.4097
-22.938
-20.5285
-7.38292
14.8577
44.8386
81.4885
123.795
170.449
219.426
268.388
315.281
358.609
397.647
432.242
462.6
489.114
512.264
532.539
550.393
566.407
581.569
595.149
606.423
615.964
0.576595
-0.624212
-0.198564
-0.486078
-0.675367
-0.902393
-1.19122
-1.4671
-1.7189
-1.86476
-1.76682
-1.30527
-0.41174
1.00087
2.80488
4.78218
6.59301
7.84815
8.0887
6.97639
4.71814
0.3521
-7.10516
-16.1105
-22.9602
-21.5992
-10.1368
9.8981
37.2272
70.9212
110.081
153.485
199.204
245.006
288.96
329.664
366.428
399.102
427.868
453.082
475.172
494.581
511.721
527.154
541.771
554.828
565.641
574.79
0.584294
-0.624179
-0.196192
-0.486357
-0.677205
-0.905702
-1.19762
-1.4771
-1.73491
-1.8882
-1.79837
-1.34669
-0.460408
0.950408
2.75976
4.75396
6.59663
7.89242
8.18932
7.14764
4.94543
0.611021
-6.82075
-15.8734
-23.075
-22.8082
-13.1193
4.60405
29.1618
59.7434
95.5593
135.513
177.814
220.364
261.36
299.476
334.036
364.871
392.124
416.107
437.2
455.795
472.268
487.162
501.274
513.852
524.254
533.068
0.59231
-0.623905
-0.193611
-0.486469
-0.6789
-0.90901
-1.20418
-1.48764
-1.75203
-1.91365
-1.83339
-1.39361
-0.517226
0.888483
2.69953
4.70696
6.5776
7.91018
8.25908
7.28137
5.12326
0.805599
-6.62164
-15.7375
-23.3259
-24.1992
-16.3713
-1.06733
20.6
47.9314
80.233
116.56
155.303
194.519
232.537
268.093
300.505
329.566
355.371
378.184
398.33
416.157
432.002
446.388
460.02
472.134
482.121
490.572
0.600031
-0.62385
-0.191176
-0.486744
-0.680781
-0.912652
-1.21121
-1.49905
-1.7706
-1.94151
-1.8724
-1.44674
-0.583178
0.813653
2.62203
4.63802
6.53114
7.89447
8.28777
7.36294
5.23142
0.9088
-6.54199
-15.7448
-23.7584
-25.8167
-19.9311
-7.15216
11.5054
35.4552
64.0994
96.6552
131.726
167.541
202.56
235.574
265.876
293.211
317.615
339.298
358.532
375.615
390.852
404.741
417.899
429.551
439.118
447.194
0.608062
-0.623558
-0.188529
-0.486849
-0.682519
-0.916301
-1.21841
-1.51106
-1.79037
-1.97157
-1.91527
-1.5061
-0.658599
0.725081
2.52568
4.54435
6.45274
7.83827
8.26481
7.37678
5.24847
0.892329
-6.61673
-15.9373
-24.4163
-27.7015
-23.8307
-13.6774
1.85546
22.2964
47.1572
75.8278
107.14
139.506
171.508
201.983
230.198
255.831
278.859
299.432
317.769
334.118
348.751
362.135
374.808
385.978
395.106
402.799
0.615809
-0.623484
-0.186027
-0.487117
-0.684447
-0.920287
-1.22609
-1.52396
-1.81167
-2.00421
-1.96246
-1.57234
-0.744431
0.621321
2.40821
4.4224
6.33687
7.7333
8.17794
7.30545
5.151
0.726047
-6.88206
-16.3575
-25.3416
-29.891
-28.0976
-20.663
-8.35944
8.4598
29.419
54.1094
81.6011
110.485
139.454
167.389
193.519
217.457
239.109
258.563
275.987
291.583
305.591
318.456
330.637
341.329
350.027
357.336
0.623866
-0.623181
-0.183311
-0.487209
-0.686231
-0.92428
-1.23396
-1.53748
-1.83421
-2.03917
-2.01382
-1.64543
-0.840943
0.501562
2.26795
4.26909
6.17842
7.57143
8.01489
7.13128
4.91547
0.380332
-7.37244
-17.0439
-26.5708
-32.4148
-32.7492
-28.114
-19.1347
-6.0317
10.9277
31.5557
55.1733
80.5503
106.474
131.859
155.895
178.126
198.387
216.705
233.192
248.004
261.351
273.652
285.29
295.449
303.654
310.529
0.631645
-0.623093
-0.18074
-0.487463
-0.688205
-0.928607
-1.24229
-1.5519
-1.85831
-2.0768
-2.06974
-1.72595
-0.948982
0.36444
2.10264
4.08072
5.97141
7.34359
7.76226
6.83564
4.51778
-0.174233
-8.12082
-18.0321
-28.1352
-35.2959
-37.795
-36.0243
-30.4555
-21.1473
-8.25111
8.24541
27.9412
49.7878
72.6461
95.461
117.38
137.877
156.717
173.865
189.38
203.375
216.031
227.739
238.813
248.419
256.114
262.524
0.639729
-0.622781
-0.177951
-0.487535
-0.690029
-0.932933
-1.25081
-1.56692
-1.88366
-2.11679
-2.12997
-1.81374
-1.06869
0.209275
1.9107
3.85421
5.71056
7.04129
7.40734
6.40077
3.93537
-0.964133
-9.1554
-19.3503
-30.0565
-38.5462
-43.2316
-44.3746
-42.2891
-36.8397
-28.0441
-15.7254
0.0110981
18.2956
38.0628
58.2761
78.0429
96.7635
114.134
130.061
144.552
157.68
169.598
180.668
191.135
200.148
207.293
213.213
0.647553
-0.622684
-0.175305
-0.487764
-0.69204
-0.937582
-1.25978
-1.58282
-1.91052
-2.15945
-2.19485
-1.90926
-1.20076
0.0348903
1.69006
3.58597
5.39001
6.65556
6.93711
5.80924
3.14702
-2.01311
-10.4998
-21.0198
-32.3484
-42.1684
-49.0463
-53.135
-54.5881
-53.0526
-48.3788
-40.2495
-28.5006
-13.8127
2.82683
20.3992
37.9705
54.8693
70.7186
85.3648
98.7667
110.957
122.065
132.43
142.231
150.603
157.16
162.552
0.655686
-0.622369
-0.172438
-0.487801
-0.693892
-0.942212
-1.26891
-1.59927
-1.93857
-2.2044
-2.26404
-2.01223
-1.34513
-0.159135
1.43947
3.27331
5.00496
6.17866
6.34023
5.04602
2.13514
-3.33934
-12.1697
-23.0518
-35.0127
-46.1522
-55.2126
-62.2606
-67.2864
-69.7085
-69.1676
-65.2136
-57.473
-46.4129
-32.946
-18.0642
-2.73813
12.2924
26.5784
39.9039
52.1764
63.3853
73.6315
83.2241
92.2825
99.9229
105.792
110.563
0.663572
-0.622266
-0.169712
-0.487987
-0.695924
-0.947144
-1.27845
-1.61654
-1.96804
-2.2519
-2.33777
-2.12295
-1.50228
-0.373659
1.15727
2.91325
4.55045
5.603
5.60613
4.09795
0.885494
-4.95577
-14.1739
-25.4482
-38.041
-50.4775
-61.6944
-71.6967
-80.3084
-86.7174
-90.3153
-90.5157
-86.7887
-79.377
-69.1295
-56.9957
-43.9739
-30.869
-18.2004
-6.24357
4.85867
15.0548
24.4163
33.2227
41.5322
48.4426
53.6297
57.7782
0.671759
-0.62195
-0.166761
-0.487971
-0.697783
-0.952032
-1.2881
-1.63428
-1.99857
-2.30152
-2.4156
-2.24099
-1.67189
-0.608712
0.842778
2.50394
4.02299
4.923
4.72702
2.95585
-0.610435
-6.86747
-16.5108
-28.1988
-41.4127
-55.1114
-68.4434
-81.3759
-93.5699
-103.979
-111.722
-116.055
-116.327
-112.58
-105.59
-96.259
-85.5975
-74.474
-63.4776
-52.9454
-43.0673
-33.9343
-25.4998
-17.5117
-9.96647
-3.78606
0.732557
4.27903
0.679721
-0.621843
-0.163946
-0.488095
-0.699812
-0.957192
-1.29812
-1.65274
-2.03037
-2.35346
-2.49767
-2.36646
-1.85415
-0.864707
0.495039
2.04347
3.41936
4.1339
3.69698
1.61391
-2.35603
-9.07249
-19.1704
-31.2835
-45.0971
-60.0119
-75.4034
-91.224
-106.979
-121.383
-133.273
-141.721
-145.969
-145.899
-142.191
-135.705
-127.445
-118.337
-109.041
-99.9561
-91.3212
-83.2674
-75.7762
-68.6234
-61.8575
-56.4202
-52.5813
-49.6429
0.687989
-0.62153
-0.160902
-0.488
-0.701654
-0.962273
-1.3082
-1.67156
-2.06303
-2.40723
-2.58343
-2.49874
-2.04844
-1.14116
0.114204
1.53137
2.73831
3.2337
2.51392
0.0716639
-4.34751
-11.5597
-22.1316
-34.6702
-49.0523
-65.1264
-82.5086
-101.158
-120.432
-138.806
-154.844
-167.394
-175.6
-179.216
-178.8
-175.182
-169.342
-162.258
-154.662
-147.015
-139.609
-132.617
-126.05
-119.713
-113.703
-108.984
-105.799
-103.45
0.696048
-0.621421
-0.157991
-0.488034
-0.70365
-0.967589
-1.31858
-1.69098
-2.09675
-2.46296
-2.6729
-2.63777
-2.25462
-1.43793
-0.29976
0.967281
1.97919
2.22182
1.17851
-1.66701
-6.57496
-14.3104
-25.365
-38.3186
-53.2289
-70.3963
-89.6885
-111.091
-133.826
-156.133
-176.309
-192.962
-205.122
-212.421
-215.293
-214.541
-211.112
-206.029
-200.093
-193.836
-187.605
-181.619
-175.923
-170.349
-165.038
-160.974
-158.382
-156.565
0.704406
-0.621107
-0.154843
-0.487833
-0.705439
-0.972785
-1.32894
-1.71063
-2.13109
-2.52014
-2.76546
-2.78273
-2.47173
-1.75393
-0.745656
0.352503
1.14366
1.10096
-0.304128
-3.59218
-9.02086
-17.2968
-28.8315
-42.1783
-57.5687
-75.7555
-96.8667
-120.933
-147.051
-173.24
-197.535
-218.303
-234.434
-245.413
-251.562
-253.656
-252.603
-249.46
-245.104
-240.14
-234.977
-229.885
-224.947
-220.026
-215.3
-211.78
-209.67
-208.288
0.712586
-0.620992
-0.151824
-0.487743
-0.707364
-0.97817
-1.33952
-1.73071
-2.16622
-2.57884
-2.86101
-2.93339
-2.69929
-2.0884
-1.22244
-0.311427
0.234242
-0.124417
-1.92576
-5.68938
-11.6618
-20.4846
-32.4853
-46.1935
-62.0098
-81.1357
-103.966
-130.591
-159.999
-190.002
-218.378
-243.275
-263.408
-278.091
-287.52
-292.427
-293.697
-292.41
-289.518
-285.711
-281.463
-277.103
-272.76
-268.328
-264.019
-260.872
-259.079
-257.982
0.721077
-0.620679
-0.148563
-0.487398
-0.709061
-0.983388
-1.35001
-1.75087
-2.20169
-2.6385
-2.95886
-3.08875
-2.93602
-2.43962
-1.72777
-1.02123
-0.744118
-1.44645
-3.67362
-7.93835
-14.4677
-23.8321
-36.2736
-50.3026
-66.4858
-86.4653
-110.908
-139.975
-172.562
-206.291
-238.704
-267.735
-291.902
-310.35
-323.097
-330.796
-334.329
-334.797
-333.235
-330.418
-326.901
-323.08
-319.135
-314.993
-310.896
-307.918
-306.245
-305.253
0.729413
-0.620557
-0.145424
-0.487146
-0.710873
-0.988747
-1.36063
-1.7713
-2.23765
-2.69917
-3.05883
-3.24843
-3.18113
-2.80625
-2.25949
-1.7734
-1.78564
-2.85559
-5.53217
-10.3151
-17.4039
-27.2936
-40.1405
-54.4422
-70.9305
-91.6747
-117.616
-148.997
-184.634
-221.983
-258.371
-291.527
-319.775
-342.085
-358.227
-368.736
-374.498
-376.634
-376.262
-374.262
-371.279
-367.785
-364.024
-359.961
-355.861
-352.844
-351.096
-350.04
0.738051
-0.620236
-0.142036
-0.486616
-0.712431
-0.993888
-1.37107
-1.79163
-2.27364
-2.76025
-3.16016
-3.41132
-3.43305
-3.18598
-2.81419
-2.56275
-2.88224
-4.33921
-7.48202
-12.7911
-20.4313
-30.8189
-44.0268
-58.5473
-75.2771
-96.6951
-124.018
-157.573
-196.115
-236.955
-277.231
-314.483
-346.861
-373.146
-392.818
-406.234
-414.265
-418.041
-418.771
-417.448
-414.821
-411.454
-407.667
-403.467
-399.147
-395.884
-393.881
-392.614
0.746573
-0.6201
-0.138764
-0.486156
-0.714083
-0.999117
-1.38155
-1.81206
-2.3098
-2.82179
-3.26265
-3.5769
-3.69074
-3.57696
-3.38873
-3.38406
-4.02532
-5.88357
-9.50203
-15.3357
-23.5086
-34.357
-47.8741
-62.5559
-79.4634
-101.463
-130.047
-165.627
-206.911
-251.089
-295.137
-336.427
-372.95
-403.311
-426.698
-443.231
-453.692
-459.205
-461.068
-460.396
-458.053
-454.708
-450.766
-446.287
-441.592
-437.933
-435.537
-433.94
0.755404
-0.619767
-0.135236
-0.485391
-0.715457
-1.00408
-1.39177
-1.83221
-2.34568
-2.88319
-3.3655
-3.74399
-3.95244
-3.97646
-3.97885
-4.2306
-5.20438
-7.47258
-11.5685
-17.9159
-26.593
-37.8562
-51.6246
-66.4079
-83.4304
-105.921
-135.641
-173.088
-216.935
-264.273
-311.944
-357.175
-397.808
-432.288
-459.589
-479.545
-492.739
-500.253
-503.451
-503.573
-501.608
-498.338
-494.265
-489.509
-484.426
-480.362
-477.582
-475.682
0.764147
-0.619607
-0.131817
-0.484673
-0.716898
-1.00907
-1.40193
-1.85229
-2.38142
-2.94447
-3.4685
-3.91201
-4.21697
-4.3823
-4.58073
-5.09596
-6.40897
-9.09
-13.6573
-20.4986
-29.6425
-41.2673
-55.2252
-70.0495
-87.1261
-110.016
-140.748
-179.898
-226.112
-276.409
-327.52
-376.551
-421.207
-459.783
-491.128
-514.817
-531.148
-541.089
-546.018
-547.286
-546.005
-543.069
-539.082
-534.231
-528.915
-524.599
-521.589
-519.534
0.773189
-0.619245
-0.128133
-0.483622
-0.718033
-1.01374
-1.41174
-1.87192
-2.41657
-3.00505
-3.57084
-4.07978
-4.48246
-4.79148
-5.1896
-5.97255
-7.62732
-10.7182
-15.7437
-23.0506
-32.6161
-44.5436
-58.6265
-73.4322
-90.5046
-113.706
-145.325
-186.005
-234.378
-287.407
-341.745
-394.396
-442.943
-485.547
-520.968
-548.576
-568.412
-581.265
-588.441
-591.36
-591.241
-589.085
-585.594
-581.023
-575.822
-571.594
-568.691
-566.799
0.782192
-0.619046
-0.124552
-0.482587
-0.719209
-1.01838
-1.4214
-1.8913
-2.45126
-3.06496
-3.67234
-4.24673
-4.74771
-5.20172
-5.80139
-6.85348
-8.84837
-12.3406
-17.8039
-25.5411
-35.4766
-47.6439
-61.7865
-76.5159
-93.5289
-116.957
-149.337
-191.373
-241.682
-297.197
-354.519
-410.574
-462.845
-509.379
-548.839
-580.416
-603.971
-620.113
-630.003
-635.063
-636.592
-635.68
-633.123
-629.243
-624.546
-620.787
-618.359
-616.968
0.791507
-0.618641
-0.120699
-0.481184
-0.72005
-1.02265
-1.43062
-1.91008
-2.48508
-3.12365
-3.77222
-4.41168
-5.01087
-5.61
-6.41122
-7.73106
-10.0604
-13.9401
-19.815
-27.9409
-38.19
-50.5318
-64.6691
-79.2669
-96.1686
-119.74
-152.758
-195.972
-247.986
-305.722
-365.76
-424.976
-480.775
-531.114
-574.545
-610.106
-637.5
-657.146
-670.052
-677.581
-681.072
-681.69
-680.326
-677.378
-673.411
-670.345
-668.606
-667.924
0.800819
-0.618383
-0.116942
-0.479766
-0.720903
-1.02685
-1.4396
-1.92845
-2.51817
-3.18118
-3.87034
-4.57416
-5.27082
-6.01413
-7.01518
-8.59868
-11.2531
-15.5017
-21.7567
-30.2249
-40.7281
-53.1781
-67.2468
-81.6611
-98.4033
-122.04
-155.576
-199.787
-253.269
-312.949
-375.413
-437.52
-496.626
-550.619
-597.939
-637.519
-668.89
-692.242
-708.403
-718.627
-724.266
-726.552
-726.467
-724.501
-721.275
-718.878
-717.764
-717.699
0.810427
-0.617909
-0.112906
-0.477942
-0.721389
-1.03061
-1.44805
-1.94606
-2.55013
-3.23701
-3.96598
-4.73306
-5.52583
-6.4113
-7.60871
-9.44927
-12.416
-17.011
-23.6102
-32.371
-43.067
-55.5595
-69.4987
-83.6812
-100.219
-123.848
-157.784
-202.816
-257.524
-318.859
-383.444
-448.151
-510.317
-567.783
-618.897
-662.502
-697.974
-725.265
-744.97
-758.182
-766.232
-770.409
-771.788
-770.95
-768.566
-766.898
-766.426
-766.973
0.820089
-0.617562
-0.108959
-0.476064
-0.721856
-1.03424
-1.45618
-1.96311
-2.58111
-3.29125
-4.05906
-4.88801
-5.77497
-6.79962
-8.18839
-10.2771
-13.5403
-18.4557
-25.3604
-34.3619
-45.1892
-57.6601
-71.4125
-85.3191
-101.613
-125.164
-159.389
-205.067
-260.763
-323.46
-389.849
-456.848
-521.801
-582.525
-637.296
-684.864
-724.482
-755.896
-779.439
-795.985
-806.788
-813.164
-816.275
-816.799
-815.446
-814.666
-814.976
-816.265
0.830053
-0.616988
-0.104728
-0.473737
-0.721923
-1.03739
-1.4637
-1.97927
-2.61073
-3.34339
-4.14893
-5.03805
-6.01671
-7.17659
-8.75029
-11.0763
-14.6177
-19.8249
-26.9941
-36.1836
-47.0815
-59.4696
-72.9815
-86.5721
-102.585
-125.997
-160.404
-206.562
-263.009
-326.777
-394.647
-463.615
-531.061
-594.795
-653.039
-704.454
-748.189
-783.838
-811.467
-831.689
-845.614
-854.545
-859.703
-861.866
-861.76
-862.043
-863.275
-865.428
0.840108
-0.616514
-0.10058
-0.471314
-0.721934
-1.04034
-1.47082
-1.99475
-2.63916
-3.39356
-4.23557
-5.18291
-6.25034
-7.54075
-9.2917
-11.8423
-15.6416
-21.1102
-28.5017
-37.8268
-48.7367
-60.9842
-74.2068
-87.4458
-103.145
-126.362
-160.853
-207.331
-264.302
-328.855
-397.883
-468.488
-538.112
-604.577
-666.066
-721.179
-768.966
-808.874
-840.755
-864.967
-882.402
-894.288
-901.873
-906.025
-907.457
-909.051
-911.417
-914.616
0.850439
-0.615787
-0.0961424
-0.468395
-0.721509
-1.04276
-1.47724
-2.00921
-2.66605
-3.44133
-4.31844
-5.3218
-6.47463
-7.89012
-9.80957
-12.5707
-16.6061
-22.3044
-29.876
-39.2856
-50.152
-62.2056
-75.0947
-87.9514
-103.31
-126.283
-160.768
-207.415
-264.695
-329.756
-399.624
-471.532
-543.008
-611.902
-676.392
-735.017
-786.694
-830.786
-867.027
-895.503
-916.838
-932.114
-942.56
-949.114
-952.444
-955.663
-959.433
-963.912
0.860924
-0.615129
-0.0917842
-0.465331
-0.720989
-1.04493
-1.48319
-2.02287
-2.69159
-3.48687
-4.39761
-5.45464
-6.68917
-8.22379
-10.3022
-13.2588
-17.5076
-23.4036
-31.1138
-40.5592
-51.3305
-63.142
-75.659
-88.1073
-103.103
-125.789
-160.186
-206.863
-264.246
-329.551
-399.949
-472.826
-545.818
-616.829
-684.043
-745.94
-801.319
-849.478
-890.082
-923.012
-948.603
-967.725
-981.522
-990.982
-996.669
-1001.92
-1007.46
-1013.53
0.871688
-0.614192
-0.0871317
-0.461714
-0.71999
-1.0465
-1.48837
-2.03541
-2.71543
-3.52975
-4.47256
-5.58072
-6.89294
-8.54016
-10.7672
-13.9035
-18.3423
-24.4041
-32.2127
-41.6481
-52.2772
-63.8038
-75.9154
-87.9341
-102.548
-124.911
-159.142
-205.718
-263.014
-328.312
-398.94
-472.458
-546.63
-619.434
-689.073
-753.978
-812.877
-864.958
-909.827
-947.279
-977.403
-1000.8
-1018.45
-1031.37
-1039.94
-1047.72
-1055.46
-1063.52
0.882644
-0.613277
-0.0825557
-0.457896
-0.718847
-1.04776
-1.493
-2.04703
-2.73777
-3.57015
-4.54341
-5.70004
-7.0857
-8.83866
-11.2036
-14.5032
-19.1085
-25.3048
-33.1737
-42.5568
-53.0017
-64.2062
-75.885
-87.4574
-101.676
-123.683
-157.68
-204.036
-261.068
-326.125
-396.702
-470.544
-545.566
-619.837
-691.594
-759.248
-821.476
-877.313
-926.281
-968.203
-1003.02
-1031.06
-1053.06
-1070.01
-1082.05
-1092.93
-1103.42
-1113.95
0.893834
-0.612043
-0.0776829
-0.453465
-0.717178
-1.04835
-1.49676
-2.05742
-2.75825
-3.60769
-4.60971
-5.81201
-7.26665
-9.11816
-11.6099
-15.0562
-19.8045
-26.1052
-33.9986
-43.2913
-53.515
-64.3663
-75.5903
-86.7045
-100.516
-122.143
-155.845
-201.871
-258.479
-323.083
-393.346
-467.213
-542.764
-618.18
-691.749
-761.887
-827.225
-886.677
-939.608
-985.827
-1025.33
-1058.25
-1085.05
-1106.59
-1122.73
-1137.36
-1151.24
-1164.83
0.905279
-0.610779
-0.0728869
-0.448768
-0.715312
-1.04858
-1.49991
-2.0668
-2.7771
-3.64258
-4.67166
-5.91679
-7.43583
-9.37855
-11.9857
-15.5621
-20.4308
-26.8071
-34.6921
-43.8602
-53.8312
-64.3039
-75.0568
-85.7053
-99.1041
-120.33
-153.68
-199.278
-255.318
-319.278
-388.989
-462.603
-538.379
-614.627
-689.704
-762.057
-830.273
-893.175
-949.976
-1000.37
-1044.43
-1082.29
-1114.17
-1140.82
-1161.69
-1180.76
-1198.72
-1216.03
0.916939
-0.609149
-0.0677944
-0.443387
-0.71286
-1.04807
-1.50211
-2.07483
-2.79398
-3.67444
-4.72881
-6.01385
-7.59263
-9.61906
-12.3303
-16.0203
-20.9873
-27.4123
-35.2589
-44.2727
-53.9646
-64.0388
-74.3095
-84.4888
-97.4715
-118.28
-151.229
-196.311
-251.657
-314.804
-383.751
-456.857
-532.572
-609.35
-685.641
-759.931
-830.795
-897.003
-957.618
-1012.13
-1060.57
-1103.22
-1140.3
-1172.4
-1198.56
-1222.75
-1245.57
-1267.38
0.928881
-0.607415
-0.0627793
-0.437668
-0.710147
-1.04712
-1.5036
-2.08175
-2.80911
-3.7035
-4.78141
-6.10346
-7.73725
-9.83993
-12.644
-16.4316
-21.4758
-27.9244
-35.7057
-44.5396
-53.9312
-63.5925
-73.3748
-83.0854
-95.6519
-116.03
-148.533
-193.021
-247.563
-309.752
-377.749
-450.119