/*--------------------------------*- C++ -*----------------------------------*\
  =========                 |
  \\      /  F ield         | OpenFOAM: The Open Source CFD Toolbox
   \\    /   O peration     | Website:  https://openfoam.org
    \\  /    A nd           | Version:  10
     \\/     M anipulation  |
\*---------------------------------------------------------------------------*/
FoamFile
{
    format      ascii;
    class       surfaceScalarField;
    location    "10";
    object      phi;
}
// * * * * * * * * * * * * * * * * * * * * * * * * * * * * * * * * * * * * * //

dimensions      [0 3 -1 0 0 0 0];

internalField   nonuniform List<scalar> 
75600
(
0.0100201
-1236.7
1236.7
0.00570099
-1023.83
1023.83
0.00210504
-847.681
847.685
-0.00087091
-701.858
701.861
-0.00332896
-581.16
581.162
-0.00537019
-481.263
481.265
-0.00705477
-398.592
398.594
-0.00845624
-330.188
330.189
-0.00961292
-273.601
273.602
-0.0105689
-226.806
226.807
-0.0113602
-188.128
188.129
-0.0120111
-156.183
156.183
-0.012544
-129.826
129.827
-0.012979
-108.115
108.115
-0.0133288
-90.2714
90.2717
-0.0136062
-75.6572
75.6575
-0.0138198
-63.7492
63.7494
-0.0139772
-54.121
54.1212
-0.0140807
-46.4284
46.4285
-0.0141293
-40.3958
40.3958
-0.0141173
-35.8073
35.8073
-0.0140322
-32.498
32.4979
-0.0138386
-30.348
30.3478
-0.0135099
-29.2785
29.2781
-0.0129633
-29.1423
29.1418
-0.0123209
-23.2195
23.2189
-0.0116171
-18.4943
18.4936
-0.0109107
-14.726
14.7253
-0.0102377
-11.7231
11.7225
-0.00961995
-9.33172
9.33111
-0.00906205
-7.42835
7.42779
-0.00856218
-5.91419
5.91369
-0.00811665
-4.71002
4.70958
-0.00772274
-3.75251
3.75211
-0.00738119
-2.99111
2.99077
-0.00709441
-2.3857
2.38542
-0.0068645
-1.90443
1.9042
-0.0066916
-1.52205
1.52188
-0.00657398
-1.2186
1.21848
-0.00650871
-0.978276
0.97821
-0.00649164
-0.788621
0.788604
-0.00652051
-0.639819
0.639847
-0.00658938
-0.524164
0.524232
-0.00665799
-0.435701
0.435769
-0.00668981
-0.369826
0.369857
-0.00671579
-0.322862
0.322888
-0.00680184
-0.292656
0.292742
-0.277643
0.2778
-0.00695887
0.0349627
-1236.69
0.0259945
-1023.82
0.0185396
-847.674
0.0123669
-701.852
0.00725712
-581.155
0.00301723
-481.259
-0.000490942
-398.589
-0.00339929
-330.185
-0.00580929
-273.598
-0.0078039
-226.804
-0.00945694
-188.126
-0.0108242
-156.181
-0.0119527
-129.825
-0.0128838
-108.114
-0.0136484
-90.2706
-0.0142735
-75.6566
-0.0147798
-63.7487
-0.0151855
-54.1206
-0.0155005
-46.428
-0.0157309
-40.3955
-0.0158755
-35.8071
-0.015924
-32.4979
-0.0158395
-30.3481
-0.0155838
-29.2787
-0.0150464
-29.1429
-0.0143285
-23.2202
-0.0134691
-18.4951
-0.0125415
-14.7269
-0.0116001
-11.7241
-0.0106854
-9.33264
-0.00981831
-7.42922
-0.00901069
-5.915
-0.00826976
-4.71076
-0.00760144
-3.75317
-0.00701414
-2.9917
-0.00651663
-2.3862
-0.00611517
-1.90483
-0.00581111
-1.52235
-0.00560148
-1.21881
-0.00548044
-0.978397
-0.0054395
-0.788662
-0.00547087
-0.639787
-0.00555597
-0.524078
-0.00563937
-0.435617
-0.00569887
-0.369766
-0.00575963
-0.322801
-0.00586908
-0.292547
-0.277494
-0.00601732
0.0594431
-1236.67
0.0453166
-1023.81
0.0335896
-847.662
0.0238788
-701.842
0.0158432
-581.147
0.00917747
-481.252
0.00366251
-398.583
-0.000913937
-330.18
-0.00470213
-273.594
-0.00784154
-226.801
-0.0104452
-188.124
-0.0126024
-156.179
-0.0143891
-129.823
-0.0158695
-108.112
-0.017094
-90.2694
-0.018106
-75.6556
-0.0189402
-63.7479
-0.0196251
-54.1199
-0.0201807
-46.4275
-0.0206198
-40.3951
-0.020946
-35.8068
-0.0211508
-32.4977
-0.0211927
-30.3481
-0.0210196
-29.2789
-0.0204818
-29.1434
-0.0196477
-23.2211
-0.0185637
-18.4962
-0.0173233
-14.7282
-0.0160061
-11.7254
-0.0146792
-9.33397
-0.0133869
-7.43051
-0.0121605
-5.91622
-0.0110219
-4.7119
-0.00998853
-3.75421
-0.00907833
-2.99261
-0.00830732
-2.38697
-0.00768584
-1.90545
-0.00721462
-1.52283
-0.00688651
-1.21913
-0.00668904
-0.978594
-0.00660482
-0.788747
-0.00661317
-0.639779
-0.00667326
-0.524018
-0.00673259
-0.435558
-0.00681021
-0.369688
-0.00690689
-0.322705
-0.00701741
-0.292436
-0.277415
-0.00709689
0.0840917
-1236.65
0.0647324
-1023.79
0.0486834
-847.646
0.0354036
-701.829
0.0244128
-581.136
0.0153066
-481.243
0.0077687
-398.576
0.00152266
-330.174
-0.00365431
-273.589
-0.00794354
-226.796
-0.011502
-188.12
-0.0144535
-156.176
-0.0169022
-129.821
-0.0189365
-108.11
-0.0206265
-90.2677
-0.022032
-75.6542
-0.0232016
-63.7467
-0.0241754
-54.119
-0.0249831
-46.4267
-0.0256448
-40.3944
-0.02617
-35.8063
-0.0265509
-32.4973
-0.026744
-30.3479
-0.0266818
-29.2789
-0.0261749
-29.1439
-0.0252448
-23.222
-0.0239486
-18.4975
-0.0224021
-14.7297
-0.0207136
-11.7271
-0.0189789
-9.3357
-0.0172683
-7.43222
-0.0156335
-5.91786
-0.014112
-4.71342
-0.012732
-3.75559
-0.0115199
-2.99382
-0.0104971
-2.388
-0.00967602
-1.90627
-0.00905371
-1.52345
-0.00861569
-1.21957
-0.00833953
-0.97887
-0.00819525
-0.788891
-0.00814512
-0.639829
-0.008134
-0.52403
-0.00813747
-0.435555
-0.00820196
-0.369624
-0.00829464
-0.322612
-0.00837139
-0.29236
-0.277416
-0.00837067
0.109187
-1236.62
0.0846626
-1023.76
0.0643516
-847.626
0.0475585
-701.812
0.0336698
-581.122
0.0221684
-481.232
0.0126531
-398.566
0.00476824
-330.166
-0.00176202
-273.583
-0.00717391
-226.791
-0.0116645
-188.116
-0.0153917
-156.172
-0.0184878
-129.818
-0.0210649
-108.108
-0.0232123
-90.2655
-0.0250069
-75.6524
-0.0265102
-63.7452
-0.0277748
-54.1177
-0.0288393
-46.4256
-0.0297322
-40.3935
-0.0304695
-35.8055
-0.0310447
-32.4967
-0.0314137
-30.3475
-0.0314953
-29.2788
-0.0310662
-29.1444
-0.0300851
-23.223
-0.0286242
-18.499
-0.0268219
-14.7315
-0.0248161
-11.7291
-0.0227313
-9.33779
-0.020663
-7.43429
-0.0186827
-5.91984
-0.0168415
-4.71526
-0.0151768
-3.75725
-0.0137203
-2.99528
-0.0124968
-2.38922
-0.0115176
-1.90725
-0.010774
-1.52419
-0.0102422
-1.2201
-0.00988867
-0.979224
-0.00967066
-0.789109
-0.0095384
-0.639961
-0.00944058
-0.524127
-0.00937858
-0.435617
-0.00939212
-0.36961
-0.00942699
-0.322577
-0.00942788
-0.292359
-0.27751
-0.0093337
0.134887
-1236.58
0.105295
-1023.73
0.0808184
-847.601
0.0605956
-701.792
0.0438837
-581.105
0.0300547
-481.218
0.0186205
-398.555
0.00915116
-330.156
0.00130943
-273.575
-0.00518857
-226.785
-0.0105806
-188.11
-0.015058
-156.168
-0.0187812
-129.814
-0.021885
-108.105
-0.0244783
-90.2629
-0.0266536
-75.6502
-0.0284869
-63.7434
-0.0300414
-54.1162
-0.0313663
-46.4243
-0.032498
-40.3924
-0.0334582
-35.8046
-0.0342445
-32.4959
-0.0348113
-30.3469
-0.0350655
-29.2786
-0.0347516
-29.1447
-0.0337507
-23.224
-0.0321531
-18.5006
-0.0301214
-14.7336
-0.0278247
-11.7314
-0.0254174
-9.34019
-0.023021
-7.43668
-0.0207267
-5.92213
-0.0185987
-4.71739
-0.0166821
-3.75917
-0.0150125
-2.99695
-0.0136159
-2.39062
-0.0125007
-1.90837
-0.0116507
-1.52504
-0.0110315
-1.22072
-0.0105982
-0.979657
-0.0102978
-0.789409
-0.0100771
-0.640182
-0.00989847
-0.524306
-0.00977148
-0.435744
-0.00971498
-0.369667
-0.00966593
-0.322626
-0.00956768
-0.292457
-0.277717
-0.00936013
0.161106
-1236.54
0.126381
-1023.7
0.097694
-847.573
0.0740195
-701.768
0.0544697
-581.086
0.0383101
-481.202
0.0249542
-398.541
0.0139018
-330.145
0.00475283
-273.566
-0.00282717
-226.777
-0.00911686
-188.104
-0.0143421
-156.163
-0.0186912
-129.81
-0.0223218
-108.101
-0.0253629
-90.2599
-0.0279232
-75.6476
-0.0300927
-63.7412
-0.0319464
-54.1143
-0.0335436
-46.4227
-0.0349291
-40.391
-0.0361323
-35.8034
-0.0371531
-32.4949
-0.0379464
-30.3461
-0.0384062
-29.2781
-0.0382442
-29.1448
-0.037245
-23.225
-0.0355207
-18.5023
-0.0332609
-14.7358
-0.0306695
-11.734
-0.0279344
-9.34293
-0.0252051
-7.43941
-0.0225947
-5.92474
-0.0201804
-4.71981
-0.0180147
-3.76133
-0.0161359
-2.99883
-0.0145698
-2.39218
-0.0133202
-1.90961
-0.0123616
-1.526
-0.011648
-1.22144
-0.0111239
-0.980181
-0.0107301
-0.789803
-0.010417
-0.640495
-0.010159
-0.524564
-0.00996022
-0.435942
-0.00982064
-0.369807
-0.0096752
-0.322772
-0.00946918
-0.292663
-0.278044
-0.00914202
0.187901
-1236.49
0.147941
-1023.66
0.114971
-847.54
0.0877935
-701.741
0.0653764
-581.063
0.0468629
-481.183
0.0315749
-398.526
0.0189335
-330.133
0.00847506
-273.555
-0.00018795
-226.768
-0.00737606
-188.097
-0.0133498
-156.157
-0.0183258
-129.805
-0.0224865
-108.097
-0.02598
-90.2564
-0.028932
-75.6447
-0.0314467
-63.7387
-0.0336118
-54.1121
-0.0354971
-46.4208
-0.0371564
-40.3894
-0.0386268
-35.8019
-0.0399114
-32.4936
-0.0409661
-30.3451
-0.0416712
-29.2774
-0.0417038
-29.1448
-0.0407294
-23.226
-0.0388862
-18.5042
-0.0363944
-14.7383
-0.0334975
-11.7369
-0.0304204
-9.34601
-0.0273446
-7.44249
-0.0244065
-5.92768
-0.0216973
-4.72251
-0.0192763
-3.76376
-0.0171833
-3.00092
-0.0154427
-2.39392
-0.0140522
-1.91101
-0.0129758
-1.52708
-0.0121555
-1.22226
-0.0115275
-0.980809
-0.011031
-0.7903
-0.0106231
-0.640903
-0.0102837
-0.524903
-0.0100052
-0.436221
-0.00977476
-0.370037
-0.00952984
-0.323017
-0.00921915
-0.292974
-0.27848
-0.0087835
0.215375
-1236.44
0.170054
-1023.61
0.132714
-847.502
0.101978
-701.71
0.0766553
-581.038
0.0557686
-481.162
0.0385383
-398.509
0.0243007
-330.119
0.0125305
-273.544
0.00278431
-226.759
-0.00530174
-188.089
-0.0120237
-156.15
-0.0176282
-129.799
-0.0223214
-108.092
-0.0262721
-90.2525
-0.0296231
-75.6413
-0.032494
-63.7358
-0.0349846
-54.1096
-0.0371763
-46.4186
-0.0391323
-40.3874
-0.0408985
-35.8001
-0.0424818
-32.4921
-0.0438393
-30.3437
-0.0448371
-29.2764
-0.045117
-29.1445
-0.0441983
-23.2269
-0.04225
-18.5061
-0.0395271
-14.741
-0.0363172
-11.7401
-0.0328873
-9.34944
-0.0294535
-7.44592
-0.0261781
-5.93096
-0.0231666
-4.72553
-0.0204845
-3.76644
-0.0181719
-3.00323
-0.0162505
-2.39584
-0.0147108
-1.91255
-0.0135059
-1.52828
-0.0125671
-1.2232
-0.0118255
-0.981551
-0.0112221
-0.790903
-0.0107197
-0.641405
-0.010297
-0.525326
-0.00993376
-0.436584
-0.00961168
-0.370359
-0.00927298
-0.323355
-0.00887053
-0.293376
-0.279003
-0.00834819
0.243628
-1236.37
0.192813
-1023.56
0.151015
-847.461
0.116658
-701.676
0.088394
-581.009
0.0651137
-481.139
0.0459294
-398.49
0.0300956
-330.103
0.0170121
-273.53
0.00618533
-226.748
-0.00279557
-188.08
-0.0102637
-156.143
-0.0164959
-129.793
-0.0217234
-108.087
-0.026136
-90.248
-0.029894
-75.6376
-0.0331322
-63.7326
-0.0359642
-54.1068
-0.038483
-46.4161
-0.0407624
-40.3851
-0.0428573
-35.798
-0.0447797
-32.4901
-0.0464885
-30.342
-0.0478359
-29.2751
-0.0484268
-29.1439
-0.0476035
-23.2277
-0.0455711
-18.5081
-0.042624
-14.744
-0.039099
-11.7436
-0.0353094
-9.35323
-0.0315098
-7.44972
-0.0278902
-5.93458
-0.0245709
-4.72885
-0.0216228
-3.76939
-0.0190852
-3.00577
-0.0169762
-2.39795
-0.0152787
-1.91424
-0.0139354
-1.52962
-0.0128693
-1.22426
-0.0120095
-0.982411
-0.0113002
-0.791612
-0.0107059
-0.642
-0.0102
-0.525832
-0.00975314
-0.437031
-0.00934572
-0.370766
-0.00892626
-0.323775
-0.00845091
-0.293852
-0.279586
-0.00786728
0.272768
-1236.3
0.216313
-1023.51
0.169952
-847.414
0.131912
-701.638
0.100669
-580.978
0.0749745
-481.113
0.0538289
-398.468
0.0363958
-330.085
0.0220057
-273.516
0.0101036
-226.736
0.000233027
-188.07
-0.00797757
-156.134
-0.0148357
-129.786
-0.0205981
-108.081
-0.0254765
-90.2432
-0.0296495
-75.6334
-0.0332676
-63.729
-0.0364586
-54.1036
-0.0393282
-46.4132
-0.0419612
-40.3825
-0.0444233
-35.7956
-0.0467317
-32.4878
-0.0488487
-30.3399
-0.0506126
-29.2733
-0.0515906
-29.143
-0.0509125
-23.2284
-0.0488253
-18.5102
-0.0456675
-14.7471
-0.0418307
-11.7475
-0.0376792
-9.35738
-0.0335097
-7.45389
-0.0295416
-5.93854
-0.0259107
-4.73248
-0.0226923
-3.7726
-0.0199243
-3.00854
-0.0176207
-2.40026
-0.0157573
-1.91611
-0.014268
-1.53111
-0.01307
-1.22546
-0.0120926
-0.983388
-0.0112815
-0.792423
-0.0105996
-0.642682
-0.0100139
-0.526418
-0.00948991
-0.437555
-0.00900883
-0.371248
-0.00852559
-0.324258
-0.00799759
-0.29438
-0.280207
-0.00737656
0.302904
-1236.23
0.240643
-1023.44
0.189614
-847.363
0.147823
-701.596
0.113562
-580.944
0.0854345
-481.085
0.0623231
-398.445
0.0432952
-330.066
0.0276044
-273.5
0.0146359
-226.723
0.00388371
-188.059
-0.00506224
-156.125
-0.0125422
-129.778
-0.0188394
-108.075
-0.0241871
-90.2378
-0.0287835
-75.6288
-0.0327955
-63.7249
-0.0363652
-54.1001
-0.0396123
-46.41
-0.0426337
-40.3795
-0.0455067
-35.7927
-0.0482552
-32.4851
-0.0508463
-30.3373
-0.0531046
-29.2711
-0.0545606
-29.1415
-0.054089
-23.2289
-0.0519854
-18.5123
-0.0486384
-14.7505
-0.0444996
-11.7516
-0.0399892
-9.36189
-0.0354493
-7.45843
-0.0311312
-5.94286
-0.0271867
-4.73642
-0.0236947
-3.7761
-0.0206913
-3.01154
-0.0181866
-2.40276
-0.0161508
-1.91814
-0.0145111
-1.53275
-0.0131814
-1.22679
-0.0120908
-0.984479
-0.0111843
-0.79333
-0.0104205
-0.643445
-0.00976172
-0.527077
-0.00917078
-0.438146
-0.00863071
-0.371788
-0.00810094
-0.324788
-0.00753922
-0.294941
-0.280846
-0.00690057
0.334146
-1236.15
0.265906
-1023.38
0.210092
-847.307
0.16448
-701.55
0.127161
-580.907
0.0965874
-481.055
0.0715073
-398.42
0.0508919
-330.046
0.0339119
-273.483
0.0198897
-226.709
0.00826844
-188.048
-0.00140354
-156.116
-0.00949892
-129.77
-0.0163288
-108.068
-0.022149
-90.232
-0.0271772
-75.6238
-0.0315977
-63.7205
-0.0355684
-54.0961
-0.0392231
-46.4063
-0.0426722
-40.376
-0.0460061
-35.7894
-0.049257
-32.4818
-0.0523981
-30.3342
-0.0552419
-29.2682
-0.057282
-29.1395
-0.0570912
-23.229
-0.0550208
-18.5144
-0.051515
-14.754
-0.0470914
-11.756
-0.0422309
-9.36675
-0.0373248
-7.46334
-0.0326584
-5.94753
-0.0284001
-4.74068
-0.0246324
-3.77986
-0.0213895
-3.01478
-0.0186786
-2.40547
-0.0164666
-1.92035
-0.0146763
-1.53454
-0.0132188
-1.22825
-0.0120221
-0.985676
-0.0110277
-0.794324
-0.0101894
-0.644284
-0.00946656
-0.527799
-0.0088209
-0.438792
-0.00823679
-0.372372
-0.00767622
-0.325348
-0.00709671
-0.295521
-0.281487
-0.00645518
0.366615
-1236.05
0.292209
-1023.3
0.231485
-847.247
0.181977
-701.501
0.14157
-580.866
0.108533
-481.021
0.0814914
-398.393
0.0592988
-330.023
0.0410482
-273.465
0.0259905
-226.694
0.0135165
-188.035
0.00313219
-156.105
-0.00556969
-129.762
-0.0129279
-108.061
-0.0192226
-90.2257
-0.0246912
-75.6183
-0.0295362
-63.7157
-0.0339319
-54.0917
-0.038028
-46.4022
-0.0419494
-40.3721
-0.0458011
-35.7855
-0.0496255
-32.478
-0.0534036
-30.3304
-0.0569376
-29.2647
-0.0596864
-29.1367
-0.0598653
-23.2289
-0.0578897
-18.5164
-0.0542658
-14.7576
-0.0495831
-11.7607
-0.0443881
-9.37194
-0.039125
-7.4686
-0.0341154
-5.95254
-0.0295455
-4.74525
-0.0255018
-3.78391
-0.0220169
-3.01827
-0.0190973
-2.40839
-0.0167088
-1.92274
-0.0147713
-1.53648
-0.013193
-1.22982
-0.0118983
-0.98697
-0.0108242
-0.795399
-0.00992014
-0.645188
-0.00914345
-0.528576
-0.00845587
-0.439479
-0.00784098
-0.372987
-0.00726285
-0.325927
-0.00667739
-0.296106
-0.282122
-0.00604314
0.400437
-1235.95
0.319661
-1023.22
0.253903
-847.181
0.200429
-701.447
0.156895
-580.823
0.121394
-480.986
0.0923971
-398.364
0.0686522
-330
0.0491537
-273.446
0.033085
-226.678
0.0197809
-188.022
0.00870266
-156.094
-0.000592832
-129.752
-0.00847315
-108.053
-0.0152424
-90.2189
-0.0211596
-75.6124
-0.0264464
-63.7104
-0.0312939
-54.0868
-0.0358689
-46.3977
-0.0403125
-40.3677
-0.0447463
-35.7811
-0.0492245
-32.4735
-0.0537392
-30.3259
-0.058084
-29.2603
-0.061685
-29.1331
-0.0623391
-23.2282
-0.0605335
-18.5182
-0.056844
-14.7613
-0.0519374
-11.7656
-0.046431
-9.37745
-0.0408255
-7.47421
-0.0354817
-5.95788
-0.0306055
-4.75013
-0.0262876
-3.78823
-0.0225609
-3.022
-0.0194331
-2.41152
-0.0168713
-1.9253
-0.0147931
-1.53856
-0.0131023
-1.23152
-0.0117183
-0.988354
-0.0105726
-0.796544
-0.00961198
-0.646148
-0.00879159
-0.529397
-0.00807342
-0.440198
-0.00743852
-0.373622
-0.00685232
-0.326513
-0.00626802
-0.296691
-0.282744
-0.00564616
0.435729
-1235.85
0.348369
-1023.13
0.277435
-847.11
0.219917
-701.39
0.173222
-580.776
0.135253
-480.948
0.104321
-398.333
0.0790458
-329.974
0.0583298
-273.425
0.0412804
-226.661
0.0271728
-188.008
0.0154226
-156.083
0.0055498
-129.742
-0.00284372
-108.044
-0.0100876
-90.2117
-0.016462
-75.606
-0.0222087
-63.7046
-0.0275379
-54.0815
-0.0326342
-46.3926
-0.0376564
-40.3626
-0.042745
-35.776
-0.0479686
-32.4683
-0.0533329
-30.3205
-0.0586261
-29.255
-0.0632453
-29.1285
-0.0644982
-23.227
-0.0629535
-18.5197
-0.0592639
-14.765
-0.0541795
-11.7707
-0.0483932
-9.38324
-0.0424663
-7.48013
-0.0368019
-5.96355
-0.0316279
-4.7553
-0.0270412
-3.79281
-0.0230759
-3.02596
-0.0197439
-2.41485
-0.017015
-1.92803
-0.014804
-1.54077
-0.0130091
-1.23331
-0.0115433
-0.98982
-0.0103337
-0.797754
-0.00932426
-0.647158
-0.00846891
-0.530252
-0.00772839
-0.440938
-0.00708156
-0.374269
-0.00649298
-0.327101
-0.00591421
-0.29727
-0.283351
-0.00530693
0.472631
-1235.73
0.378451
-1023.04
0.302199
-847.034
0.240561
-701.328
0.190684
-580.726
0.15025
-480.908
0.117404
-398.3
0.0906365
-329.948
0.0687419
-273.403
0.0507498
-226.643
0.0358735
-187.993
0.0234795
-156.07
0.0130499
-129.732
0.0041549
-108.035
-0.0035606
-90.204
-0.0104005
-75.5992
-0.0166271
-63.6984
-0.0224701
-54.0757
-0.0281342
-46.3869
-0.0337981
-40.357
-0.0396228
-35.7702
-0.045695
-32.4622
-0.0520367
-30.3142
-0.0584352
-29.2486
-0.064262
-29.1227
-0.0662573
-23.225
-0.0650812
-18.5209
-0.0614713
-14.7686
-0.056267
-11.7759
-0.0502416
-9.38926
-0.0440214
-7.48636
-0.0380551
-5.96951
-0.0325963
-4.76076
-0.0277499
-3.79766
-0.023553
-3.03016
-0.0200242
-2.41838
-0.0171366
-1.93092
-0.0148017
-1.54311
-0.0129103
-1.2352
-0.0113695
-0.991361
-0.0101026
-0.799021
-0.00905129
-0.648209
-0.0081679
-0.531135
-0.00741125
-0.441695
-0.00675784
-0.374922
-0.00617034
-0.327689
-0.00559979
-0.29784
-0.283943
-0.00500789
0.511282
-1235.61
0.410037
-1022.94
0.328318
-846.952
0.262487
-701.262
0.209402
-580.673
0.166518
-480.865
0.131794
-398.266
0.103577
-329.919
0.0805521
-273.38
0.0616645
-226.624
0.0460612
-187.977
0.0330584
-156.057
0.0220974
-129.721
0.0127167
-108.026
0.00453337
-90.1958
-0.00277952
-75.5919
-0.00950702
-63.6917
-0.0158996
-54.0693
-0.0221833
-46.3806
-0.0285587
-40.3506
-0.0352108
-35.7635
-0.042247
-32.4552
-0.0497102
-30.3067
-0.0573909
-29.241
-0.0646413
-29.1154
-0.0675444
-23.2221
-0.0668631
-18.5216
-0.0634286
-14.772
-0.0581755
-11.7811
-0.0519622
-9.39548
-0.0454845
-7.49283
-0.0392412
-5.97576
-0.0335156
-4.76648
-0.0284231
-3.80275
-0.0240061
-3.03458
-0.0202907
-2.4221
-0.0172541
-1.93396
-0.0148034
-1.54556
-0.012822
-1.23718
-0.0112118
-0.992971
-0.00989298
-0.80034
-0.00880505
-0.649297
-0.0078982
-0.532042
-0.00712919
-0.442464
-0.00647156
-0.37558
-0.00588639
-0.328274
-0.00532422
-0.298402
-0.28452
-0.00474715
0.551825
-1235.47
0.443262
-1022.83
0.355922
-846.865
0.285822
-701.192
0.229512
-580.617
0.1842
-480.819
0.147643
-398.229
0.118032
-329.89
0.0939366
-273.356
0.0742096
-226.604
0.0579298
-187.961
0.0443592
-156.044
0.0328982
-129.71
0.0230509
-108.016
0.0144067
-90.1872
0.00661306
-75.5841
-0.000637107
-63.6844
-0.00761784
-54.0623
-0.014578
-46.3737
-0.021743
-40.3434
-0.0293243
-35.7559
-0.0374538
-32.4471
-0.0461997
-30.298
-0.0553622
-29.2318
-0.0642801
-29.1065
-0.0682804
-23.2181
-0.0682402
-18.5216
-0.0650941
-14.7752
-0.0598774
-11.7864
-0.0535389
-9.40181
-0.0468484
-7.49952
-0.0403599
-5.98224
-0.0343913
-4.77245
-0.0290719
-3.80807
-0.0244498
-3.0392
-0.0205603
-2.42598
-0.0173846
-1.93713
-0.0148252
-1.54812
-0.0127588
-1.23925
-0.0110833
-0.994647
-0.00971673
-0.801706
-0.00859564
-0.650418
-0.00766799
-0.53297
-0.00688848
-0.443243
-0.00622735
-0.376241
-0.00564422
-0.328857
-0.00508943
-0.298957
-0.285084
-0.00452489
0.594419
-1235.33
0.478261
-1022.71
0.385139
-846.772
0.3107
-701.118
0.251161
-580.557
0.20345
-480.772
0.165114
-398.191
0.134179
-329.859
0.109084
-273.331
0.0885847
-226.584
0.0716874
-187.944
0.0575987
-156.029
0.0456744
-129.698
0.0353842
-108.006
0.0262878
-90.1781
0.0180076
-75.5758
0.0102106
-63.6766
0.00259967
-54.0547
-0.00510013
-46.366
-0.0131405
-40.3354
-0.0217636
-35.7473
-0.03113
-32.4377
-0.0413389
-30.2878
-0.0522069
-29.2209
-0.0630665
-29.0957
-0.0683786
-23.2127
-0.0691473
-18.5209
-0.066421
-14.7779
-0.0613417
-11.7914
-0.0549533
-9.4082
-0.0481048
-7.50637
-0.041411
-5.98894
-0.0352299
-4.77863
-0.0297078
-3.81359
-0.0248995
-3.04401
-0.0208497
-2.43003
-0.0175442
-1.94044
-0.0148818
-1.55078
-0.0127341
-1.2414
-0.0109962
-0.996385
-0.009584
-0.803119
-0.00843168
-0.65157
-0.00748364
-0.533918
-0.00669369
-0.444033
-0.00602739
-0.376907
-0.00544378
-0.329441
-0.00489314
-0.299508
-0.285641
-0.00433684
0.639227
-1235.17
0.515184
-1022.59
0.416118
-846.672
0.337273
-701.039
0.274498
-580.494
0.224435
-480.722
0.184391
-398.151
0.152209
-329.827
0.126196
-273.305
0.105003
-226.562
0.0875578
-187.927
0.073008
-156.015
0.0606641
-129.685
0.0499592
-107.995
0.0404225
-90.1685
0.0316492
-75.567
0.0232807
-63.6683
0.0149939
-54.0464
0.00648618
-46.3575
-0.00252484
-40.3264
-0.0123141
-35.7375
-0.0230771
-32.4269
-0.0349491
-30.2759
-0.0477712
-29.2081
-0.0608795
-29.0825
-0.0677451
-23.2059
-0.0695137
-18.5191
-0.0673584
-14.7801
-0.0625341
-11.7963
-0.0561848
-9.41455
-0.0492442
-7.51331
-0.0423939
-5.99579
-0.0360378
-4.78499
-0.0303427
-3.81929
-0.0253702
-3.04898
-0.0211746
-2.43423
-0.0177478
-1.94387
-0.0149866
-1.55354
-0.0127599
-1.24362
-0.0109611
-0.998183
-0.00950401
-0.804576
-0.00832047
-0.652754
-0.00735096
-0.534888
-0.00654875
-0.444836
-0.00587441
-0.377581
-0.00528722
-0.330028
-0.00473574
-0.300059
-0.286195
-0.00418198
0.686412
-1235.01
0.554187
-1022.46
0.449005
-846.567
0.365688
-700.956
0.29969
-580.428
0.247325
-480.669
0.205654
-398.109
0.172323
-329.793
0.145488
-273.278
0.123691
-226.541
0.105778
-187.909
0.090833
-156
0.0781196
-129.673
0.067033
-107.984
0.0570708
-90.1586
0.0477994
-75.5577
0.0388331
-63.6593
0.0298209
-54.0374
0.0204297
-46.3481
0.0103444
-40.3163
-0.000748146
-35.7264
-0.0130835
-32.4146
-0.0268396
-30.2621
-0.0418924
-29.1931
-0.0575902
-29.0668
-0.0662794
-23.1972
-0.0692628
-18.5161
-0.0678504
-14.7815
-0.0634165
-11.8007
-0.0572105
-9.42076
-0.0502559
-7.52027
-0.0433076
-6.00274
-0.0368218
-4.79147
-0.0309884
-3.82512
-0.0258759
-3.05409
-0.0215493
-2.43856
-0.0180089
-1.94741
-0.0151523
-1.5564
-0.0128477
-1.24593
-0.010988
-1.00004
-0.0094852
-0.806079
-0.0082688
-0.65397
-0.00727561
-0.535881
-0.00645813
-0.445653
-0.0057727
-0.378267
-0.00517774
-0.330623
-0.00462214
-0.300615
-0.286749
-0.00406799
0.736163
-1234.83
0.595433
-1022.32
0.483965
-846.456
0.396111
-700.868
0.326903
-580.359
0.272309
-480.615
0.229105
-398.066
0.194733
-329.759
0.167185
-273.25
0.144887
-226.518
0.126596
-187.89
0.111332
-155.985
0.098307
-129.66
0.086877
-107.973
0.0765067
-90.1482
0.0667331
-75.548
0.0571412
-63.6497
0.04735
-54.0276
0.0369943
-46.3377
0.0257206
-40.305
0.0131747
-35.7139
-0.000925974
-32.4005
-0.0168094
-30.2463
-0.0343976
-29.1755
-0.0530621
-29.0482
-0.0638747
-23.1864
-0.0683127
-18.5117
-0.0678369
-14.782
-0.0639473
-11.8046
-0.0580047
-9.4267
-0.0511277
-7.52714
-0.0441505
-6.00971
-0.0375875
-4.79804
-0.0316553
-3.83105
-0.0264291
-3.05932
-0.0219865
-2.443
-0.0183398
-1.95105
-0.0153904
-1.55935
-0.0130081
-1.24831
-0.0110865
-1.00196
-0.00953573
-0.807629
-0.00828321
-0.655223
-0.00726278
-0.536901
-0.00642588
-0.44649
-0.00572518
-0.378968
-0.00511794
-0.33123
-0.0045524
-0.301181
-0.287309
-0.00399174
0.788665
-1234.64
0.639095
-1022.17
0.52116
-846.338
0.428713
-700.775
0.356323
-580.287
0.299575
-480.558
0.254952
-398.021
0.21966
-329.724
0.191524
-273.222
0.168841
-226.496
0.150275
-187.872
0.134776
-155.969
0.121504
-129.646
0.109774
-107.961
0.0990163
-90.1374
0.0887369
-75.5377
0.0784899
-63.6395
0.0678626
-54.017
0.0564532
-46.3263
0.043868
-40.2924
0.0297047
-35.6997
0.0136284
-32.3844
-0.00464819
-30.228
-0.0251062
-29.155
-0.0471517
-29.0261
-0.0604185
-23.1731
-0.0665766
-18.5055
-0.0672531
-14.7813
-0.0640814
-11.8078
-0.0585392
-9.43224
-0.0518455
-7.53384
-0.0449194
-6.01664
-0.0383391
-4.80462
-0.0323518
-3.83704
-0.0270401
-3.06463
-0.0224973
-2.44754
-0.0187518
-1.9548
-0.0157122
-1.56239
-0.0132522
-1.25077
-0.0112664
-1.00395
-0.00966457
-0.809231
-0.00837062
-0.656517
-0.00731752
-0.537954
-0.006454
-0.447354
-0.00573176
-0.37969
-0.00510447
-0.331858
-0.00452181
-0.301763
-0.287883
-0.00394779
0.844116
-1234.44
0.685359
-1022.01
0.560772
-846.213
0.463673
-700.678
0.388134
-580.211
0.329328
-480.499
0.283408
-397.975
0.247335
-329.688
0.218749
-273.194
0.19581
-226.473
0.177082
-187.853
0.161442
-155.954
0.147996
-129.633
0.136015
-107.949
0.124894
-90.1263
0.114106
-75.5269
0.103173
-63.6285
0.0916481
-54.0054
0.0790897
-46.3137
0.0650587
-40.2784
0.0491007
-35.6838
0.0308196
-32.3661
0.00986084
-30.207
-0.0138308
-29.1313
-0.0397105
-29.0003
-0.0557936
-23.157
-0.0639636
-18.4973
-0.0660304
-14.7792
-0.0637697
-11.81
-0.0587826
-9.43723
-0.052393
-7.54023
-0.0456093
-6.02342
-0.0390787
-4.81115
-0.0330837
-3.84304
-0.0277169
-3.07
-0.0230909
-2.45217
-0.0192551
-1.95863
-0.0161282
-1.56551
-0.0135906
-1.25331
-0.0115384
-1.006
-0.00988185
-0.810888
-0.00854122
-0.657858
-0.00744924
-0.539046
-0.00655174
-0.448251
-0.0058001
-0.380442
-0.00514312
-0.332515
-0.00453449
-0.302372
-0.288481
-0.00393739
0.902733
-1234.23
0.734415
-1021.84
0.602983
-846.082
0.501179
-700.577
0.422533
-580.133
0.36177
-480.438
0.314694
-397.928
0.277995
-329.651
0.249111
-273.165
0.226057
-226.45
0.207292
-187.834
0.191615
-155.938
0.178074
-129.619
0.165896
-107.937
0.154439
-90.1149
0.143141
-75.5156
0.131489
-63.6169
0.119
-53.993
0.10519
-46.2999
0.0895696
-40.2628
0.0716258
-35.6658
0.0508927
-32.3454
0.0269388
-30.1831
-0.000380219
-29.104
-0.0305857
-28.97
-0.0498794
-23.1377
-0.0603791
-18.4868
-0.0640965
-14.7755
-0.06296
-11.8112
-0.0587007
-9.44149
-0.0527509
-7.54618
-0.0462119
-6.02996
-0.0398049
-4.81756
-0.0338538
-3.84899
-0.0284651
-3.07538
-0.0237752
-2.45686
-0.0198589
-1.96255
-0.016649
-1.56872
-0.0140345
-1.25592
-0.0119141
-1.00812
-0.0101991
-0.812603
-0.00880735
-0.65925
-0.00767133
-0.540183
-0.00673534
-0.449187
-0.0059498
-0.381227
-0.00526022
-0.333204
-0.00462287
-0.303009
-0.289102
-0.00400154
0.964747
-1234
0.786492
-1021.66
0.648023
-845.943
0.541469
-700.47
0.459771
-580.051
0.397176
-480.376
0.349099
-397.88
0.31194
-329.614
0.282925
-273.136
0.259913
-226.427
0.241248
-187.816
0.225648
-155.922
0.2121
-129.606
0.199786
-107.925
0.188023
-90.1031
0.176214
-75.5038
0.163811
-63.6045
0.150288
-53.9794
0.135117
-46.2848
0.117753
-40.2454
0.0976188
-35.6457
0.0741693
-32.322
0.046885
-30.1558
0.0155149
-29.0726
-0.0195446
-28.935
-0.0424747
-23.1148
-0.0556477
-18.4737
-0.0612973
-14.7698
-0.061517
-11.8109
-0.0581754
-9.44483
-0.0528163
-7.55154
-0.0466351
-6.03614
-0.0404321
-4.82376
-0.0345803
-3.85484
-0.0292064
-3.08076
-0.024475
-2.46159
-0.0204909
-1.96653
-0.0172039
-1.57201
-0.0145146
-1.25861
-0.0123254
-1.01031
-0.0105496
-0.814379
-0.00910329
-0.660696
-0.00791858
-0.541367
-0.0069393
-0.450166
-0.00611381
-0.382053
-0.00538512
-0.333933
-0.00471188
-0.303683
-0.289755
-0.00405841
1.03038
-1233.76
0.841781
-1021.47
0.696063
-845.798
0.584703
-700.359
0.50001
-579.966
0.435704
-480.311
0.386787
-397.831
0.349351
-329.576
0.320384
-273.107
0.297577
-226.404
0.279157
-187.797
0.263755
-155.907
0.250295
-129.592
0.237907
-107.912
0.225871
-90.0911
0.21355
-75.4915
0.200358
-63.5913
0.185728
-53.9648
0.16908
-46.2681
0.149808
-40.2261
0.127265
-35.6231
0.100817
-32.2955
0.0698438
-30.1248
0.0339709
-29.0368
-0.0065078
-28.8945
-0.0335312
-23.0878
-0.0497476
-18.4575
-0.0576322
-14.762
-0.0594591
-11.8091
-0.0572421
-9.44705
-0.0526388
-7.55614
-0.0469392
-6.04184
-0.0410268
-4.82967
-0.0353339
-3.86053
-0.030015
-3.08608
-0.0252671
-2.46634
-0.0212286
-1.97057
-0.0178704
-1.57537
-0.0151063
-1.26138
-0.0128457
-1.01257
-0.0110031
-0.816222
-0.00949605
-0.662203
-0.00825398
-0.542609
-0.00722335
-0.451197
-0.00634761
-0.382929
-0.00556941
-0.334711
-0.00484945
-0.304403
-0.290452
-0.00415293
1.09988
-1233.5
0.900484
-1021.27
0.747288
-845.644
0.631057
-700.242
0.543418
-579.879
0.477529
-480.246
0.427945
-397.782
0.390413
-329.539
0.361678
-273.078
0.33925
-226.381
0.321227
-187.779
0.306149
-155.892
0.292873
-129.579
0.280478
-107.9
0.268201
-90.0788
0.255368
-75.4786
0.241349
-63.5773
0.225532
-53.949
0.207283
-46.2499
0.185929
-40.2048
0.160746
-35.598
0.131001
-32.2658
0.09596
-30.0898
0.0551044
-28.9959
0.00860743
-28.848
-0.0229957
-23.0562
-0.042652
-18.4378
-0.053095
-14.7515
-0.0567971
-11.8054
-0.0559272
-9.44792
-0.0522586
-7.55981
-0.047174
-6.04693
-0.041645
-4.8352
-0.0361753
-3.866
-0.0309558
-3.0913
-0.0262192
-2.47107
-0.0221413
-1.97465
-0.0187177
-1.57879
-0.0158779
-1.26422
-0.0135411
-1.01491
-0.0116237
-0.818139
-0.0100461
-0.663781
-0.0087359
-0.54392
-0.00764274
-0.45229
-0.00670471
-0.383867
-0.00586725
-0.335549
-0.00508592
-0.305184
-0.291206
-0.0043323
1.17351
-1233.23
0.962857
-1021.06
0.801943
-845.484
0.680774
-700.121
0.590248
-579.788
0.522911
-480.178
0.472834
-397.732
0.435403
-329.501
0.407095
-273.05
0.385228
-226.359
0.367762
-187.762
0.353141
-155.877
0.340151
-129.566
0.32782
-107.887
0.315338
-90.0663
0.30199
-75.4653
0.287104
-63.5624
0.270017
-53.9319
0.250038
-46.2299
0.226421
-40.1812
0.198355
-35.5699
0.164999
-32.2324
0.125492
-30.0503
0.0791505
-28.9496
0.0260053
-28.7949
-0.0106891
-23.0195
-0.034206
-18.4143
-0.0475505
-14.7382
-0.0534111
-11.7996
-0.0541235
-9.44721
-0.0515796
-7.56235
-0.0472531
-6.05125
-0.0422068
-4.84025
-0.0370296
-3.87118
-0.0319594
-3.09637
-0.0272662
-2.47577
-0.0231668
-1.97875
-0.0196852
-1.58227
-0.0167708
-1.26713
-0.0143545
-1.01733
-0.0123568
-0.820137
-0.0107016
-0.665436
-0.00931591
-0.545305
-0.00815159
-0.453455
-0.00714306
-0.384875
-0.00623594
-0.336456
-0.00538493
-0.306035
-0.292025
-0.00456597
1.25154
-1232.95
1.02915
-1020.84
0.860256
-845.315
0.734072
-699.995
0.64071
-579.695
0.572057
-480.11
0.521667
-397.681
0.484539
-329.464
0.456856
-273.022
0.435735
-226.338
0.41899
-187.745
0.404963
-155.863
0.392365
-129.553
0.380169
-107.875
0.367518
-90.0537
0.353653
-75.4514
0.337857
-63.5466
0.319414
-53.9135
0.297569
-46.208
0.271499
-40.1551
0.240299
-35.5387
0.203006
-32.1951
0.158619
-30.0059
0.106267
-28.8972
0.0458167
-28.7344
0.00349904
-22.9772
-0.0243209
-18.3865
-0.0409308
-14.7216
-0.0492466
-11.7912
-0.0517873
-9.44467
-0.0505676
-7.56357
-0.0471504
-6.05467