/*--------------------------------*- C++ -*----------------------------------*\
  =========                 |
  \\      /  F ield         | OpenFOAM: The Open Source CFD Toolbox
   \\    /   O peration     | Website:  https://openfoam.org
    \\  /    A nd           | Version:  10
     \\/     M anipulation  |
\*---------------------------------------------------------------------------*/
FoamFile
{
    format      ascii;
    class       volVectorField;
    location    "10";
    object      U;
}
// * * * * * * * * * * * * * * * * * * * * * * * * * * * * * * * * * * * * * //

dimensions      [0 1 -1 0 0 0 0];

internalField   nonuniform List<vector> 
38016
(
(52.0826 -0.000900268 0)
(52.0806 0.000537392 -3.02177e-26)
(52.0819 -0.000173058 3.6497e-26)
(52.0824 -9.98116e-05 0)
(52.0832 -0.000145838 0)
(52.0841 -0.000170338 0)
(52.0852 -0.000183085 1.12421e-25)
(52.0865 -0.000164504 1.22082e-21)
(52.088 -7.07471e-05 -2.12051e-25)
(52.0897 2.34198e-05 2.55794e-25)
(52.0916 0.000242496 6.26148e-22)
(52.0937 0.000629616 1.36357e-25)
(52.096 0.0012029 1.27121e-22)
(52.0984 0.0021587 -2.19498e-22)
(52.1009 0.00367067 4.16521e-22)
(52.1032 0.00598075 0)
(52.1051 0.00936063 0)
(52.1059 0.0144719 0)
(52.1054 0.0220813 -1.1542e-24)
(52.1027 0.0331938 1.32638e-24)
(52.0968 0.0504278 -2.95973e-22)
(52.0851 0.0766473 1.96179e-22)
(52.0669 0.116905 4.17066e-23)
(52.0363 0.184235 2.47249e-25)
(51.991 0.298805 -2.1399e-22)
(51.9212 0.48191 1.82924e-26)
(51.8353 0.726468 -1.78874e-21)
(51.7266 1.0234 2.57711e-23)
(51.6019 1.3645 6.08893e-26)
(51.4651 1.73295 0)
(51.3225 2.11613 8.9292e-26)
(51.1812 2.5026 1.63262e-22)
(51.047 2.88247 -7.33408e-21)
(50.9226 3.24691 0)
(50.8082 3.58754 0)
(50.7023 3.89588 0)
(50.602 4.16439 0)
(50.5035 4.38748 -2.61314e-21)
(50.4032 4.56211 -1.83451e-21)
(50.298 4.68707 -1.51051e-22)
(50.1856 4.76295 -1.70977e-22)
(50.0652 4.79214 5.93063e-21)
(49.9369 4.77324 -1.27983e-21)
(49.8043 4.70085 1.59476e-21)
(49.6545 4.62172 0)
(49.4336 4.58585 0)
(49.1881 4.55315 -1.06281e-20)
(48.9441 4.46922 9.73902e-21)
(52.0826 -0.000946421 -2.71568e-21)
(52.0805 0.000538117 -1.20655e-25)
(52.0819 -0.000196803 -1.47709e-21)
(52.0824 -0.000124279 0)
(52.0832 -0.000177725 0)
(52.0841 -0.000210334 2.12731e-21)
(52.0852 -0.000232693 -7.04618e-27)
(52.0865 -0.000225187 -1.22098e-21)
(52.088 -0.000144363 1.68084e-21)
(52.0898 -6.37768e-05 1.29147e-25)
(52.0917 0.000142942 6.27574e-22)
(52.0938 0.000519572 8.85523e-26)
(52.0962 0.00108936 -1.27015e-22)
(52.0986 0.00205551 2.19267e-22)
(52.101 0.00360088 -4.16247e-22)
(52.1034 0.00598371 1.75955e-21)
(52.1053 0.00950188 1.42943e-21)
(52.1062 0.0148485 -2.0263e-24)
(52.1058 0.0228345 6.96532e-26)
(52.1034 0.0345432 2.63404e-24)
(52.0979 0.0527241 8.65161e-22)
(52.0869 0.0803453 -5.44199e-22)
(52.0703 0.12283 -4.2236e-23)
(52.0417 0.19354 -4.78594e-22)
(51.9997 0.314519 -2.06039e-23)
(51.9277 0.507261 -7.98296e-24)
(51.8411 0.764848 1.75849e-21)
(51.7306 1.07796 8.02684e-21)
(51.6056 1.43756 -7.85453e-21)
(51.4703 1.82561 0)
(51.3304 2.22802 0)
(51.1931 2.63187 9.32632e-21)
(51.0637 3.02604 7.1317e-21)
(50.9449 3.40078 -1.06371e-20)
(50.8362 3.74715 0)
(50.7357 4.05631 1.09688e-20)
(50.64 4.32062 0)
(50.5451 4.53475 2.61573e-21)
(50.4471 4.69614 -3.69381e-21)
(50.3425 4.80411 4.59791e-21)
(50.2288 4.85973 -6.24918e-21)
(50.1049 4.86599 -2.01516e-21)
(49.9708 4.82116 -1.29795e-21)
(49.8301 4.71853 1.62008e-21)
(49.6633 4.61658 0)
(49.415 4.5655 0)
(49.1401 4.53094 -8.14713e-21)
(48.879 4.466 9.89725e-21)
(52.0826 -0.000984155 -6.1743e-23)
(52.0806 0.000540462 0)
(52.0819 -0.000216754 2.9451e-21)
(52.0824 -0.000143474 0)
(52.0832 -0.000202825 0)
(52.0841 -0.000241445 -2.1273e-21)
(52.0852 -0.000270631 5.65324e-26)
(52.0865 -0.000270473 -8.83929e-26)
(52.088 -0.00019778 -1.68085e-21)
(52.0898 -0.000124807 1.29406e-25)
(52.0917 7.62456e-05 -1.25432e-21)
(52.0938 0.000450637 -1.11309e-21)
(52.0962 0.00102695 4.86081e-22)
(52.0986 0.00201439 -5.49282e-25)
(52.1011 0.00360645 5.83608e-25)
(52.1034 0.00607838 -1.75845e-21)
(52.1054 0.00975113 -1.42904e-21)
(52.1063 0.0153538 1.98122e-25)
(52.106 0.0237448 -2.36635e-24)
(52.1038 0.0360839 0)
(52.0985 0.0552693 -1.66158e-21)
(52.0878 0.0844408 3.47968e-22)
(52.0719 0.129354 2.59773e-22)
(52.0441 0.204081 1.09074e-21)
(52.0052 0.33179 1.98932e-22)
(51.9361 0.534947 0)
(51.8531 0.806186 6.7109e-21)
(51.7461 1.13545 -7.95899e-21)
(51.6249 1.5127 7.80129e-21)
(51.4936 1.91841 0)
(51.3581 2.33701 4.21061e-22)
(51.2255 2.75418 8.13942e-21)
(51.1012 3.15787 1.80935e-21)
(50.9876 3.53775 7.94587e-21)
(50.8836 3.88461 -1.36449e-20)
(50.7872 4.18966 -1.0962e-20)
(50.6945 4.44547 0)
(50.6011 4.64729 -1.05298e-20)
(50.5028 4.79337 3.70396e-21)
(50.396 4.88385 -4.61009e-21)
(50.2778 4.92056 1.26838e-20)
(50.1467 4.90741 -7.92813e-21)
(50.0029 4.84279 1.31365e-20)
(49.8485 4.72083 -2.73652e-21)
(49.659 4.61503 5.81241e-22)
(49.3887 4.566 -2.3008e-20)
(49.0993 4.53675 1.94332e-23)
(48.8371 4.49287 -2.07428e-20)
(52.0826 -0.00102483 8.45549e-21)
(52.0805 0.000542755 0)
(52.0819 -0.000237787 -1.4676e-21)
(52.0824 -0.000163962 -3.2101e-25)
(52.0832 -0.000229593 -5.21257e-21)
(52.0841 -0.000274736 1.49735e-25)
(52.0852 -0.000311386 3.26929e-21)
(52.0865 -0.000319404 0)
(52.088 -0.000256071 3.38303e-21)
(52.0898 -0.000192155 0)
(52.0917 1.28721e-06 -2.51418e-21)
(52.0938 0.00037088 1.11341e-21)
(52.0962 0.000950914 -4.86086e-22)
(52.0986 0.00195671 6.73782e-26)
(52.1011 0.00359242 1.74885e-21)
(52.1034 0.00615159 3.60361e-21)
(52.1054 0.00997958 -3.13311e-24)
(52.1064 0.0158417 3.68999e-24)
(52.1062 0.024645 0)
(52.104 0.0376267 -2.49081e-21)
(52.0989 0.0578296 2.13906e-21)
(52.0884 0.0885478 -5.14567e-22)
(52.073 0.135869 -9.55693e-22)
(52.0459 0.214439 -6.13865e-22)
(52.0084 0.348757 3.69363e-23)
(51.9419 0.562112 2.95863e-23)
(51.8628 0.846694 -2.39063e-22)
(51.7606 1.19173 -1.56327e-20)
(51.6449 1.58608 1.55664e-20)
(51.5198 2.00886 0)
(51.3907 2.44303 0)
(51.2649 2.87297 -2.71917e-23)
(51.1472 3.28578 -1.42852e-20)
(51.0399 3.67071 0)
(50.9415 4.01843 1.54454e-20)
(50.8493 4.32037 0)
(50.7591 4.56955 0)
(50.6661 4.76202 1.05147e-20)
(50.5659 4.89704 -6.83518e-21)
(50.4546 4.97581 -9.54791e-21)
(50.3292 5.00127 1.21832e-20)
(50.1878 4.97851 8.11162e-21)
(50.0309 4.90648 2.11194e-20)
(49.8585 4.78234 -2.53393e-20)
(49.6444 4.69594 0)
(49.3612 4.67044 -2.05735e-23)
(49.0753 4.65678 -4.6126e-20)
(48.8339 4.62655 4.57275e-20)
(52.0826 -0.00106689 -5.67811e-21)
(52.0806 0.000545446 4.80302e-25)
(52.0819 -0.000259433 -2.89836e-21)
(52.0824 -0.000185054 3.30722e-21)
(52.0832 -0.000257175 5.21259e-21)
(52.0841 -0.000309077 4.28122e-21)
(52.0852 -0.000353486 3.29395e-21)
(52.0865 -0.000370037 0)
(52.088 -0.000316473 -3.38315e-21)
(52.0898 -0.000262083 6.47438e-26)
(52.0917 -7.6623e-05 2.51372e-21)
(52.0938 0.000287972 3.14487e-25)
(52.0962 0.000871793 0)
(52.0986 0.00189682 5.06631e-25)
(52.1011 0.00357828 -1.74945e-21)
(52.1035 0.00622861 -3.60356e-21)
(52.1055 0.0102189 -2.93908e-21)
(52.1065 0.0163516 4.11304e-21)
(52.1064 0.0255834 0)
(52.1043 0.0392315 4.94957e-21)
(52.0994 0.0604877 -1.04663e-21)
(52.0893 0.0927938 5.14197e-22)
(52.0744 0.142591 1.57199e-21)
(52.0481 0.225112 2.1269e-24)
(52.0124 0.366156 -2.13649e-24)
(51.9483 0.58987 2.83196e-23)
(51.8729 0.887943 -1.29094e-20)
(51.7751 1.24887 1.57232e-20)
(51.6647 1.66039 -1.53916e-22)
(51.5455 2.10028 0)
(51.4229 2.55009 -8.37532e-22)
(51.3037 2.99292 -1.75425e-20)
(51.1928 3.41513 1.42733e-20)
(51.0919 3.80569 0)
(50.9991 4.15533 0)
(50.911 4.45583 -2.19121e-20)
(50.8227 4.70089 8.06971e-21)
(50.7293 4.88749 -1.00894e-20)
(50.6262 5.01606 -5.73728e-22)
(50.5092 5.08901 1.83975e-20)
(50.3755 5.11046 -1.24774e-20)
(50.2234 5.0868 -1.61788e-20)
(50.0535 5.01803 -4.21671e-20)
(49.8644 4.90508 5.70092e-20)
(49.6325 4.85237 6.4196e-20)
(49.3477 4.85979 -7.33002e-20)
(49.0761 4.86392 -5.31837e-21)
(48.864 4.84093 -5.78246e-21)
(52.0825 -0.00111054 0)
(52.0805 0.000548588 0)
(52.0819 -0.000281652 2.89753e-21)
(52.0824 -0.000206689 -3.30692e-21)
(52.0832 -0.000285477 0)
(52.0841 -0.000344314 -4.28125e-21)
(52.0852 -0.000396692 -6.56372e-21)
(52.0865 -0.000422005 2.75338e-25)
(52.088 -0.000378453 0)
(52.0898 -0.000333831 0)
(52.0917 -0.000156475 5.03768e-21)
(52.0938 0.000203238 0)
(52.0962 0.000791362 0)
(52.0986 0.00183701 -1.02875e-21)
(52.1011 0.00356696 -3.61511e-21)
(52.1035 0.00631332 3.69253e-21)
(52.1056 0.0104739 2.9359e-21)
(52.1066 0.0168897 -8.24454e-21)
(52.1066 0.0265681 -4.76807e-24)
(52.1047 0.0409078 -2.45483e-21)
(52.1 0.063253 1.91071e-21)
(52.0902 0.0971889 0)
(52.0759 0.149514 -8.74975e-22)
(52.0505 0.236049 0)
(52.0167 0.38391 0)
(51.9554 0.618077 -2.69993e-23)
(51.8841 0.929723 1.84567e-20)
(51.7914 1.3066 -1.50759e-20)
(51.6869 1.73528 -1.54007e-20)
(51.5743 2.1922 0)
(51.4588 2.65753 -2.22528e-20)
(51.347 3.11307 -1.04646e-21)
(51.2433 3.54453 -3.03261e-20)
(51.1492 3.94068 -1.57975e-20)
(51.0619 4.29245 -7.74653e-21)
(50.9776 4.59212 4.89047e-20)
(50.8908 4.83418 -8.04769e-21)
(50.7962 5.01671 1.00613e-20)
(50.6892 5.14141 1.41601e-20)
(50.5658 5.21198 -2.90506e-20)
(50.4235 5.2338 3.67107e-20)
(50.2611 5.21455 3.31358e-20)
(50.0797 5.15552 -5.0595e-20)
(49.8783 5.06024 -6.42737e-21)
(49.6377 5.0449 6.4112e-20)
(49.3606 5.08427 -6.8546e-20)
(49.1097 5.10242 5.31302e-21)
(48.9286 5.08085 5.77698e-21)
(52.0826 -0.00115579 0)
(52.0806 0.000552161 0)
(52.0819 -0.000304499 -2.85968e-21)
(52.0824 -0.000228897 6.3978e-25)
(52.0832 -0.000314532 -7.69094e-25)
(52.0841 -0.000380497 1.53329e-24)
(52.0852 -0.000441072 6.61146e-21)
(52.0865 -0.000475399 -9.9053e-21)
(52.088 -0.000442142 0)
(52.0898 -0.000407597 8.79333e-21)
(52.0917 -0.00023859 -5.0379e-21)
(52.0938 0.000116197 -1.69523e-25)
(52.0962 0.000708906 2.03924e-25)
(52.0986 0.00177624 1.02879e-21)
(52.1011 0.00355698 3.61396e-21)
(52.1036 0.00640365 -3.68895e-21)
(52.1057 0.010742 -2.57322e-24)
(52.1067 0.0174522 4.13529e-21)
(52.1068 0.027594 4.78333e-24)
(52.105 0.0426481 0)
(52.1005 0.066114 -1.91745e-21)
(52.0911 0.101715 -4.82216e-22)
(52.0774 0.156605 0)
(52.053 0.24718 0)
(52.0211 0.401864 7.5378e-24)
(51.963 0.646424 -9.45576e-24)
(51.8961 0.971508 -1.21295e-20)
(51.809 1.3641 1.50715e-20)
(51.7109 1.80958 2.94296e-22)
(51.6056 2.28304 -8.77686e-22)
(51.4978 2.76325 2.45394e-20)
(51.3938 3.23077 -3.64003e-20)
(51.2977 3.67068 2.67184e-20)
(51.2103 4.0717 4.21494e-20)
(51.1285 4.42508 0)
(51.0474 4.72377 -2.18122e-20)
(50.9611 4.96317 -8.01393e-21)
(50.8644 5.14261 3.08426e-20)
(50.7527 5.26517 -2.8235e-20)
(50.6224 5.33587 1.88053e-20)
(50.4718 5.3613 0)
(50.3005 5.35029 8.05179e-21)
(50.1107 5.30522 3.72922e-23)
(49.903 5.23022 -5.23383e-20)
(49.6624 5.25118 1.33167e-19)
(49.4001 5.31807 2.61284e-21)
(49.1738 5.3452 -8.31137e-20)
(49.0252 5.31891 1.13915e-20)
(52.0825 -0.00120277 1.234e-20)
(52.0805 0.000556193 1.18115e-20)
(52.0819 -0.000327997 -2.81818e-21)
(52.0824 -0.000251712 -6.63372e-21)
(52.0832 -0.00034439 1.94893e-25)
(52.0841 -0.000417685 -9.31008e-25)
(52.0852 -0.000486698 -1.32479e-20)
(52.0865 -0.000530314 9.90581e-21)
(52.088 -0.000507661 -1.77899e-25)
(52.0898 -0.000483525 -8.79389e-21)
(52.0917 -0.000323154 0)
(52.0938 2.66243e-05 4.40201e-21)
(52.0962 0.000624161 -7.54516e-26)
(52.0986 0.00171421 9.05953e-26)
(52.1012 0.00354801 1.25746e-24)
(52.1036 0.00649922 7.56998e-21)
(52.1057 0.0110226 3.23137e-24)
(52.1069 0.0180386 -3.80556e-24)
(52.107 0.0286598 0)
(52.1054 0.0444501 0)
(52.1011 0.0690663 0)
(52.092 0.106361 4.82534e-22)
(52.079 0.163842 -5.01914e-24)
(52.0557 0.258464 2.63373e-21)
(52.0258 0.419929 0)
(51.971 0.674734 0)
(51.9087 1.01299 0)
(51.8276 1.4209 1.44234e-20)
(51.7364 1.88264 -2.95881e-20)
(51.6388 2.37197 2.79061e-20)
(51.5391 2.86627 1.97901e-20)
(51.4432 3.34489 4.12598e-20)
(51.3547 3.79237 2.47702e-20)
(51.274 4.19751 -2.10076e-20)
(51.1972 4.55204 0)
(51.1187 4.84971 0)
(51.0321 5.087 -1.41943e-20)
(50.9324 5.26455 -2.00314e-20)
(50.8156 5.38688 1.40748e-20)
(50.6786 5.46028 -1.87839e-20)
(50.5208 5.49234 5.07938e-20)
(50.3429 5.49272 -1.28084e-19)
(50.1488 5.46425 9.00974e-20)
(49.9411 5.40967 0)
(49.7075 5.46366 -1.26937e-19)
(49.4643 5.55289 1.44908e-19)
(49.2647 5.58404 1.0407e-20)
(49.149 5.54701 -1.13856e-20)
(52.0825 -0.00125149 -2.49253e-20)
(52.0806 0.000560655 -1.18125e-20)
(52.0819 -0.000352204 5.67748e-21)
(52.0824 -0.000275174 6.63432e-21)
(52.0832 -0.000375097 0)
(52.0841 -0.000455936 -6.08179e-25)
(52.0852 -0.000533642 -6.68203e-21)
(52.0865 -0.000586831 0)
(52.088 -0.000575105 1.37393e-20)
(52.0898 -0.00056173 0)
(52.0917 -0.000410288 -1.302e-25)
(52.0938 -6.56392e-05 -4.40209e-21)
(52.0962 0.000536959 0)
(52.0986 0.00165073 0)
(52.1012 0.00353982 1.27498e-24)
(52.1036 0.00659971 -7.57551e-21)
(52.1058 0.0113152 2.63056e-24)
(52.107 0.0186478 -8.45523e-21)
(52.1072 0.0297638 0)
(52.1057 0.0463105 0)
(52.1017 0.0721033 0)
(52.0931 0.111116 2.64375e-24)
(52.0806 0.171202 -2.8303e-24)
(52.0585 0.269854 -2.62602e-21)
(52.0307 0.438018 0)
(51.9794 0.70285 0)
(51.922 1.05391 1.05088e-20)
(51.8474 1.47664 -2.83087e-20)
(51.7637 1.95399 4.85839e-22)
(51.6743 2.45842 -2.68841e-20)
(51.5831 2.96597 -2.26825e-20)
(51.4955 3.45479 3.60137e-20)
(51.4147 3.90902 -2.79692e-20)
(51.3404 4.31765 0)
(51.2681 4.67308 0)
(51.1915 4.96998 5.42614e-20)
(51.1039 5.20599 -1.41117e-20)
(51.0006 5.38313 -2.06669e-20)
(50.8785 5.50734 2.77822e-20)
(50.7355 5.58593 1.85352e-20)
(50.5723 5.62717 -5.04142e-20)
(50.3911 5.64104 6.20176e-20)
(50.1972 5.63014 0)
(49.9951 5.59419 0)
(49.7735 5.67673 -2.30786e-20)
(49.5517 5.78305 0)
(49.3789 5.81352 -2.06702e-20)
(49.2951 5.7603 0)
(52.0825 -0.00130209 1.25861e-20)
(52.0805 0.00056558 0)
(52.0819 -0.000377137 5.59825e-21)
(52.0824 -0.000299311 6.64579e-21)
(52.0832 -0.000406691 1.06423e-20)
(52.0841 -0.000495295 1.21986e-24)
(52.0852 -0.000581958 2.66819e-20)
(52.0865 -0.000645019 1.77117e-24)
(52.088 -0.000644556 -1.374e-20)
(52.0898 -0.000642305 -5.25586e-25)
(52.0917 -0.000500095 -1.01107e-20)
(52.0938 -0.000160729 0)
(52.0962 0.000447153 0)
(52.0986 0.00158564 0)
(52.1012 0.00353218 -3.86369e-21)
(52.1036 0.00670478 7.7691e-21)
(52.1058 0.0116193 -6.18747e-21)
(52.1071 0.0192788 8.45972e-21)
(52.1074 0.0309039 -4.84277e-24)
(52.1061 0.0482249 0)
(52.1023 0.0752169 1.5323e-24)
(52.0941 0.115964 -1.68789e-24)
(52.0823 0.178656 0)
(52.0614 0.281298 6.39089e-21)
(52.0357 0.456032 1.67373e-24)
(51.9882 0.730597 -2.09915e-24)
(51.936 1.09401 -1.06429e-20)
(51.8683 1.53095 3.79392e-22)
(51.7926 2.02315 2.85104e-20)
(51.7118 2.54182 2.68735e-20)
(51.6295 3.06171 1.61087e-21)
(51.5505 3.55986 -3.80048e-20)
(51.4773 4.02008 0)
(51.4091 4.43172 0)
(51.3408 4.78797 -2.98211e-20)
(51.2654 5.08457 -4.27759e-20)
(51.176 5.32036 2.98583e-20)
(51.0689 5.49873 2.03394e-20)
(50.9419 5.62684 -2.27694e-22)
(50.7943 5.71277 -3.68709e-20)
(50.6282 5.76497 4.9944e-20)
(50.447 5.79317 3.02034e-21)
(50.2575 5.79914 -5.85957e-20)
(50.0654 5.77872 -1.24251e-20)
(49.8587 5.88479 1.53275e-20)
(49.6589 6.00329 -1.46138e-19)
(49.5118 6.02891 3.361e-19)
(49.4577 5.95511 -1.73618e-19)
(52.0825 -0.00135459 6.50763e-25)
(52.0806 0.000570937 2.36606e-20)
(52.0819 -0.000402853 -1.11541e-20)
(52.0824 -0.000324164 -6.64629e-21)
(52.0832 -0.000439219 -1.0643e-20)
(52.0841 -0.000535821 -9.38074e-25)
(52.0852 -0.000631714 -1.33649e-20)
(52.0865 -0.000704953 -1.11704e-24)
(52.088 -0.000716102 4.36963e-25)
(52.0898 -0.000725349 -5.27129e-25)
(52.0917 -0.000592689 -8.48637e-24)
(52.0938 -0.000258775 -9.78616e-27)
(52.0962 0.000354587 0)
(52.0986 0.00151875 -2.38834e-21)
(52.1012 0.00352485 3.86326e-21)
(52.1037 0.00681403 -7.76735e-21)
(52.1059 0.0119341 6.18517e-21)
(52.1072 0.0199301 8.59161e-21)
(52.1076 0.0320774 4.36049e-24)
(52.1065 0.0501884 -1.47451e-24)
(52.1029 0.078398 -2.68085e-24)
(52.0952 0.120888 -2.03288e-22)
(52.0841 0.186172 -3.85418e-24)
(52.0644 0.29274 -6.39085e-21)
(52.0409 0.473867 0)
(51.9974 0.757793 -3.92086e-23)
(51.9507 1.133 4.91819e-23)
(51.8904 1.58342 -1.316e-20)
(51.8231 2.0896 3.62847e-22)
(51.7514 2.62157 -4.09174e-22)
(51.6783 3.15287 4.37297e-20)
(51.6079 3.65949 -3.76564e-20)
(51.5422 4.12502 3.12837e-21)
(51.4797 4.5393 -4.60917e-20)
(51.4149 4.89648 3.67412e-20)
(51.3401 5.19346 0)
(51.2486 5.43024 0)
(51.1377 5.61147 1.99276e-20)
(51.0067 5.74531 -2.62569e-20)
(50.8562 5.84012 2.5219e-21)
(50.6899 5.9041 -1.1998e-19)
(50.5121 5.94624 6.07575e-20)
(50.3306 5.96716 -1.99e-20)
(50.1513 5.95855 1.24163e-20)
(49.9608 6.08321 1.22222e-19)
(49.7822 6.20965 -1.396e-19)
(49.6588 6.22707 0)
(49.6311 6.12965 -1.74005e-19)
(52.0825 -0.00140913 -2.66466e-20)
(52.0805 0.000576756 2.36802e-20)
(52.0819 -0.000429369 5.55579e-21)
(52.0823 -0.000349761 -1.33157e-20)
(52.0832 -0.000472718 1.16325e-24)
(52.0841 -0.000577557 1.73683e-20)
(52.0852 -0.000682964 0)
(52.0865 -0.000766697 -2.00433e-20)
(52.088 -0.000789815 -1.38649e-20)
(52.0898 -0.000810942 -8.91829e-21)
(52.0916 -0.000688149 2.02491e-20)
(52.0938 -0.000359854 7.82268e-26)
(52.0962 0.00025912 0)
(52.0986 0.00144989 4.84647e-21)
(52.1012 0.00351757 7.98833e-21)
(52.1037 0.00692698 7.97363e-21)
(52.106 0.0122587 -2.72341e-24)
(52.1073 0.0206002 -8.59225e-21)
(52.1078 0.0332812 0)
(52.1069 0.0521954 3.45659e-24)
(52.1035 0.0816364 -3.89849e-24)
(52.0963 0.12587 2.01404e-22)
(52.0858 0.193716 4.34173e-24)
(52.0675 0.304118 -1.40346e-23)
(52.0463 0.491414 3.80314e-21)
(52.007 0.78425 -1.79521e-21)
(51.9661 1.17057 8.90397e-21)
(51.9135 1.63364 5.22246e-20)
(51.8551 2.15284 1.08994e-21)
(51.7929 2.69711 -2.51798e-20)
(51.7294 3.23884 -4.60896e-20)
(51.6676 3.75309 4.67901e-22)
(51.6091 4.22334 5.35431e-20)
(51.552 4.64004 4.04944e-20)
(51.4902 4.99845 -1.57556e-20)
(51.4155 5.29663 8.33753e-20)
(51.3218 5.53571 3.18781e-20)
(51.2075 5.72133 -3.8823e-20)
(51.0737 5.86231 2.71865e-20)
(50.9226 5.96687 5.68216e-20)
(50.7587 6.04254 -1.6592e-19)
(50.5873 6.09722 1.19903e-19)
(50.4162 6.13044 -1.59148e-19)
(50.2512 6.12986 4.00939e-19)
(50.0767 6.26871 -2.32646e-19)
(49.9174 6.39973 0)
(49.8151 6.40651 -3.36844e-19)
(49.8103 6.2837 3.44185e-19)
(52.0825 -0.00146572 2.66476e-20)
(52.0806 0.000583006 -7.10253e-20)
(52.0819 -0.000456745 5.47391e-21)
(52.0823 -0.000376145 2.66394e-20)
(52.0832 -0.000507236 0)
(52.0841 -0.000620561 -1.73689e-20)
(52.0852 -0.000735772 0)
(52.0865 -0.000830322 2.0044e-20)
(52.088 -0.000865772 1.38646e-20)
(52.0898 -0.000899169 8.91966e-21)
(52.0916 -0.000786565 -2.0269e-20)
(52.0938 -0.000464057 -4.3461e-21)
(52.0962 0.000160621 1.45404e-21)
(52.0986 0.00137888 -2.4576e-21)
(52.1012 0.00351005 -7.9877e-21)
(52.1037 0.00704312 -7.97367e-21)
(52.106 0.0125922 0)
(52.1074 0.0212871 0)
(52.1081 0.0345119 -4.34975e-24)
(52.1072 0.0542394 -4.54905e-21)
(52.1042 0.0849206 2.78632e-21)
(52.0974 0.13089 0)
(52.0877 0.201252 0)
(52.0707 0.31537 0)
(52.0517 0.50856 -7.98993e-21)
(52.0169 0.809778 2.99235e-21)
(51.982 1.20645 -8.99219e-21)
(51.9377 1.68121 -2.56817e-20)
(51.8886 2.21238 0)
(51.8364 2.76785 0)
(51.7825 3.31904 -3.08838e-21)
(51.7294 3.84014 3.85006e-20)
(51.6779 4.31463 -5.34826e-20)
(51.6258 4.73369 1.08211e-20)
(51.5665 5.09377 -4.2283e-20)
(51.4917 5.3941 -4.13995e-20)
(51.3958 5.63675 -3.55528e-22)
(51.279 5.82808 -3.96961e-20)
(51.144 5.97713 0)
(50.9943 6.0916 1.44492e-19)
(50.8355 6.17802 -1.14125e-19)
(50.6726 6.24318 0)
(50.5132 6.28578 0)
(50.3626 6.28987 -1.20302e-20)
(50.2031 6.43924 0)
(50.0608 6.57239 -1.68415e-20)
(49.9768 6.56689 1.94022e-20)
(49.9915 6.41809 -1.04163e-20)
(52.0825 -0.00152451 -2.76305e-20)
(52.0805 0.000589716 -7.78369e-24)
(52.0818 -0.000484996 5.38445e-21)
(52.0823 -0.000403344 -2.66632e-20)
(52.0832 -0.000542811 1.07764e-20)
(52.084 -0.000664877 1.88961e-24)
(52.0852 -0.000790188 0)
(52.0864 -0.000895883 -1.32929e-24)
(52.088 -0.000944036 1.60424e-24)
(52.0897 -0.000990091 0)
(52.0916 -0.000887999 -1.13381e-23)
(52.0938 -0.000571442 4.34642e-21)
(52.0962 5.90363e-05 -1.45409e-21)
(52.0986 0.00130553 -5.18902e-21)
(52.1012 0.00350198 0)
(52.1037 0.00716186 0)
(52.106 0.0129334 0)
(52.1075 0.0219888 0)
(52.1082 0.0357655 4.35334e-24)
(52.1076 0.0563135 4.54962e-21)
(52.1048 0.0882382 -5.47065e-21)
(52.0986 0.135927 4.90162e-24)
(52.0895 0.208743 -5.24716e-24)
(52.074 0.326432 8.56175e-21)
(52.0573 0.525193 4.20976e-21)
(52.0271 0.834189 -1.54245e-21)
(51.9985 1.24034 2.2489e-22)
(51.9628 1.72575 -2.82038e-22)
(51.9235 2.26772 2.59567e-20)
(51.8815 2.83328 0)
(51.8375 3.39294 0)
(51.793 3.92016 -3.82889e-20)
(51.7483 4.39852 5.98602e-21)
(51.7008 4.82002 -1.06612e-20)
(51.6437 5.18237 9.86063e-20)
(51.5688 5.48585 -4.02717e-20)
(51.4712 5.73324 -2.8511e-20)
(51.3529 5.93125 4.06587e-20)
(51.2185 6.08876 -1.31371e-19)
(51.0724 6.21262 -7.42275e-20)
(50.9204 6.3083 1.83651e-20)
(50.7673 6.38155 2.66472e-19)
(50.6199 6.43071 -1.47624e-19)
(50.4831 6.43672 2.13108e-19)
(50.337 6.59373 -2.23454e-19)
(50.2091 6.72736 -2.36119e-19)
(50.1406 6.70871 2.96257e-19)
(50.1713 6.53429 0)
(52.0825 -0.00158551 5.57555e-20)
(52.0806 0.000596852 4.7384e-20)
(52.0818 -0.000514183 -1.08524e-20)
(52.0823 -0.000431402 -9.49128e-24)
(52.0832 -0.00057949 -1.07769e-20)
(52.084 -0.000710559 -4.36997e-24)
(52.0852 -0.000846273 2.98914e-24)
(52.0864 -0.000963447 -2.01955e-20)
(52.088 -0.00102468 -1.76869e-24)
(52.0897 -0.00108378 2.13365e-24)
(52.0916 -0.000992511 1.0152e-20)
(52.0938 -0.000682059 -5.47012e-25)
(52.0962 -4.56767e-05 1.35579e-21)
(52.0986 0.00122971 -1.35422e-22)
(52.1012 0.00349304 8.39006e-21)
(52.1037 0.00728256 2.38077e-24)
(52.1061 0.0132812 -2.82506e-24)
(52.1076 0.0227027 0)
(52.1084 0.0370376 4.36379e-24)
(52.108 0.0584098 -1.73483e-24)
(52.1054 0.0915758 2.68072e-21)
(52.0997 0.140959 0)
(52.0914 0.21615 4.98244e-21)
(52.0773 0.337239 -1.75834e-20)
(52.063 0.541202 -3.61556e-23)
(52.0375 0.857302 4.06263e-22)
(52.0155 1.27197 -7.23881e-21)
(51.9888 1.76687 5.16659e-22)
(51.9598 2.31843 -2.39384e-21)
(51.9283 2.8929 1.27723e-21)
(51.8944 3.46005 2.97787e-21)
(51.8584 3.99275 6.26185e-20)
(51.8202 4.47475 -5.09411e-20)
(51.7769 4.89891 -1.0488e-20)
(51.7219 5.26419 -4.33425e-20)
(51.6472 5.57181 7.9816e-20)
(51.5486 5.82492 2.76459e-20)
(51.4301 6.03021 0)
(51.298 6.19603 4.36598e-22)
(51.1571 6.32826 3.4642e-20)
(51.0133 6.43134 0)
(50.8705 6.51032 -2.93097e-20)
(50.7347 6.56358 1.8182e-20)
(50.6101 6.56949 -2.30856e-20)
(50.4756 6.73204 0)
(50.3595 6.8652 -1.64269e-20)
(50.3039 6.83322 0)
(50.3479 6.63424 0)
(52.0825 -0.00164888 -2.8124e-20)
(52.0805 0.000604439 -4.74045e-20)
(52.0818 -0.000544323 1.06787e-20)
(52.0823 -0.000460348 -1.33648e-20)
(52.0831 -0.000617312 0)
(52.084 -0.000757653 0)
(52.0852 -0.000904077 -2.72905e-20)
(52.0864 -0.00103306 2.01964e-20)
(52.088 -0.00110774 0)
(52.0897 -0.00118026 1.06083e-24)
(52.0916 -0.00110013 -1.27896e-24)
(52.0938 -0.000795928 8.64455e-21)
(52.0962 -0.000153511 -1.35592e-21)
(52.0986 0.00115143 5.32514e-21)
(52.1012 0.00348292 1.33383e-22)
(52.1037 0.00740449 0)
(52.1061 0.013634 0)
(52.1077 0.0234262 4.33303e-24)
(52.1086 0.0383233 -5.04999e-24)
(52.1083 0.0605201 -9.08834e-21)
(52.106 0.0949192 3.66118e-24)
(52.1009 0.145962 0)
(52.0933 0.223433 -1.01764e-20)
(52.0807 0.347725 9.02954e-21)
(52.0687 0.556478 0)
(52.0482 0.878943 0)
(52.033 1.30109 7.44098e-21)
(52.0157 1.80423 -2.22021e-20)
(51.9972 2.36408 -2.51998e-20)
(51.9766 2.94626 0)
(51.9528 3.51996 0)
(51.9253 4.05757 -6.46534e-22)
(51.8933 4.54308 6.48501e-20)
(51.8541 4.97024 -1.75142e-20)
(51.8014 5.33918 5.45938e-20)
(51.7273 5.65183 -6.63588e-22)
(51.6287 5.91139 -8.52907e-20)
(51.5114 6.12414 3.49322e-20)
(51.3831 6.2977 -7.95118e-20)
(51.2487 6.43692 3.0281e-19)
(51.1137 6.54551 -1.7192e-19)
(50.9808 6.62812 0)
(50.8556 6.68351 -1.81628e-20)
(50.7416 6.68808 0)
(50.6166 6.85476 4.63539e-19)
(50.51 6.9871 -4.99083e-19)
(50.4652 6.94205 0)
(50.5199 6.71991 0)
(52.0825 -0.00171463 0)
(52.0806 0.000612444 2.37057e-20)
(52.0818 -0.000575476 -9.13554e-23)
(52.0823 -0.000490229 2.67148e-20)
(52.0831 -0.000656324 2.17478e-20)
(52.084 -0.000806212 -1.75504e-20)
(52.0852 -0.000963656 2.72918e-20)
(52.0864 -0.00110479 2.6824e-24)
(52.088 -0.00119328 -2.81762e-20)
(52.0897 -0.0012796 1.81159e-20)
(52.0916 -0.00121089 2.44172e-25)
(52.0938 -0.000913059 -8.64352e-21)
(52.0961 -0.000264476 1.21672e-25)
(52.0986 0.0010707 5.58707e-21)
(52.1011 0.00347152 -8.52506e-21)
(52.1037 0.007527 -1.70371e-20)
(52.1061 0.0139903 1.44892e-24)
(52.1077 0.0241565 0)
(52.1088 0.0396176 0)
(52.1086 0.0626356 9.09058e-21)
(52.1066 0.0982533 -3.64121e-24)
(52.102 0.150913 1.18742e-23)
(52.0952 0.230552 5.20932e-21)
(52.0841 0.357826 9.95203e-21)
(52.0744 0.570916 -2.42178e-23)
(52.059 0.898951 3.03477e-23)
(52.0508 1.32744 -6.04608e-21)
(52.0433 1.83753 2.0976e-20)
(52.0358 2.40431 1.20737e-21)
(52.0264 2.99297 1.89984e-20)
(52.0129 3.57231 4.3051e-20)
(51.9937 4.11435 -4.11589e-20)
(51.9678 4.60335 1.12891e-20)
(51.9326 5.03392 2.02053e-20)
(51.8825 5.40723 -7.98252e-20)
(51.8098 5.72566 -7.97379e-20)
(51.7123 5.99209 4.78445e-20)
(51.5975 6.21209 1.44249e-19)
(51.4743 6.39246 0)
(51.3471 6.53718 -3.3254e-20)
(51.2208 6.64947 1.97413e-19)
(51.0972 6.73402 -1.89593e-19)
(50.981 6.79009 -3.01683e-19)
(50.8758 6.79275 3.41583e-19)
(50.7584 6.96271 -2.6563e-20)
(50.6591 7.0943 0)
(50.6229 7.03663 1.6947e-20)
(50.6863 6.79295 6.1036e-19)
(52.0825 -0.00178292 0)
(52.0806 0.000620884 0)
(52.0818 -0.00060766 -1.05843e-20)
(52.0823 -0.000521075 -1.33767e-20)
(52.0831 -0.000696566 -2.17481e-20)
(52.084 -0.00085628 -3.63282e-23)
(52.0852 -0.00102506 0)
(52.0864 -0.00117868 0)
(52.088 -0.00128135 2.81722e-20)
(52.0897 -0.00138181 6.42324e-23)
(52.0916 -0.00132478 2.04428e-20)
(52.0938 -0.00103343 1.2512e-24)
(52.0961 -0.00037854 1.22856e-21)
(52.0986 0.000987536 1.24258e-22)
(52.1011 0.00345885 0)
(52.1037 0.00764968 -2.23197e-22)
(52.1061 0.0143488 1.4224e-24)
(52.1078 0.0248904 -2.10743e-24)
(52.1089 0.0409149 -4.4459e-24)
(52.1089 0.064747 8.3371e-24)
(52.1072 0.101563 -3.64107e-24)
(52.1031 0.155786 -2.11824e-21)
(52.097 0.237468 5.61693e-21)
(52.0874 0.36748 4.29255e-22)
(52.0801 0.584418 6.02676e-21)
(52.0699 0.91718 2.40345e-21)
(52.0691 1.35084 2.32171e-22)
(52.0717 1.86648 -9.50371e-21)
(52.0755 2.43881 0)
(52.0775 3.03272 -4.41855e-20)
(52.0744 3.6168 -3.31387e-20)
(52.0635 4.16288 -6.97548e-21)
(52.0435 4.65544 4.7757e-20)
(52.0126 5.08987 -1.9781e-20)
(51.9656 5.4682 -2.75595e-20)
(51.8953 5.79295 -7.732e-20)
(51.8001 6.06638 -5.82395e-20)
(51.689 6.29311 3.27933e-20)
(51.5716 6.47916 1.00277e-19)
(51.452 6.62789 -2.56884e-19)
(51.3339 6.74238 1.42467e-19)
(51.2183 6.82759 1.92175e-19)
(51.1097 6.88343 -2.1674e-19)
(51.0113 6.8842 -3.41278e-19)
(50.8996 7.05708 4.26528e-19)
(50.8059 7.18829 1.46341e-20)
(50.7764 7.1187 -1.69278e-20)
(50.8466 6.85522 -5.91248e-19)
(52.0825 -0.00185376 -3.00922e-20)
(52.0806 0.000629724 -5.04873e-24)
(52.0818 -0.000640936 4.49954e-24)
(52.0823 -0.000552935 4.01411e-20)
(52.0831 -0.000738087 -2.187e-20)
(52.084 -0.000907914 1.75822e-20)
(52.0852 -0.00108834 -7.64418e-25)
(52.0864 -0.00125477 1.87397e-24)
(52.088 -0.00137198 3.25808e-24)
(52.0897 -0.00148692 6.90835e-23)
(52.0916 -0.00144181 -4.09419e-20)
(52.0938 -0.001157 -6.02955e-25)
(52.0961 -0.000495642 -3.61837e-21)
(52.0985 0.000901954 1.18286e-22)
(52.1011 0.00344481 6.78666e-25)
(52.1037 0.00777233 3.47454e-20)
(52.1061 0.0147085 -1.37869e-20)
(52.1078 0.0256251 0)
(52.109 0.0422098 -2.24644e-24)
(52.1092 0.0668451 2.58155e-24)
(52.1077 0.104831 -2.48935e-21)
(52.1042 0.160559 -1.05417e-22)
(52.0988 0.244143 -5.61267e-21)
(52.0908 0.376628 -1.03458e-20)
(52.0858 0.596892 -1.24409e-20)
(52.081 0.933504 -3.98264e-21)
(52.0877 1.37111 1.03749e-20)
(52.1007 1.89087 1.93899e-20)
(52.1162 2.46733 1.80736e-21)
(52.1299 3.06526 1.94873e-20)
(52.1373 3.65324 -5.42041e-21)
(52.1347 4.20302 1.53809e-20)
(52.1208 4.69929 -4.53633e-20)
(52.0944 5.13802 -1.63976e-20)
(52.0514 5.52192 5.22556e-20)
(51.9845 5.85331 8.29581e-22)
(51.8928 6.13354 0)
(51.7863 6.36626 -3.46467e-20)
(51.6753 6.55682 0)
(51.5628 6.70823 -1.28382e-19)
(51.4521 6.82376 -7.37824e-21)
(51.3432 6.90885 3.9215e-19)
(51.2405 6.96401 -2.60466e-19)
(51.1473 6.96339 -3.30524e-19)
(51.0396 7.13919 -3.46063e-20)
(50.9499 7.27064 4.40546e-19)
(50.9256 7.19001 0)
(51.0012 6.90861 5.53816e-19)
(52.0824 -0.00192732 6.06822e-20)
(52.0806 0.000638978 0)
(52.0818 -0.000675321 1.03055e-20)
(52.0823 -0.000585843 -4.01593e-20)
(52.0831 -0.000780929 2.18713e-20)
(52.084 -0.000961157 -1.76584e-20)
(52.0852 -0.00115354 -3.03326e-24)
(52.0864 -0.00133312 2.04819e-20)
(52.088 -0.00146521 -3.30118e-25)
(52.0897 -0.00159494 -1.82432e-20)
(52.0916 -0.00156195 2.04954e-20)
(52.0938 -0.00128371 0)
(52.0961 -0.000615685 2.39105e-21)
(52.0985 0.000814032 -5.82981e-21)
(52.1011 0.00342932 1.80757e-20)
(52.1036 0.00789454 -3.51888e-20)
(52.106 0.0150686 -1.79825e-22)
(52.1078 0.0263587 -2.83398e-25)
(52.1091 0.0434973 1.46812e-24)
(52.1095 0.068921 9.43449e-21)
(52.1082 0.108044 5.01936e-21)
(52.1053 0.165207 2.21287e-21)
(52.1006 0.25054 -5.85543e-21)
(52.0942 0.385216 1.1024e-20)
(52.0914 0.608255 6.32503e-21)
(52.0922 0.947813 -3.09586e-22)
(52.1066 1.3881 -4.85916e-21)
(52.1304 1.91053 -8.5833e-21)
(52.1579 2.48967 -1.06372e-21)
(52.1836 3.09039 -3.14918e-21)
(52.2017 3.68148 3.94527e-21)
(52.2075 4.2347 0)
(52.1997 4.73485 -5.80774e-20)
(52.1785 5.1783 5.0077e-20)
(52.1405 5.56814 0)
(52.0783 5.90626 3.63173e-20)
(51.991 6.19289 -5.25306e-20)
(51.8898 6.43071 6.66116e-20)
(51.7851 6.62469 0)
(51.6793 6.77772 -1.24506e-19)
(51.5748 6.89352 1.93154e-19)
(51.4713 6.97813 8.03567e-22)
(51.3728 7.03254 -3.23962e-20)
(51.2832 7.03141 0)
(51.1781 7.21041 -3.84959e-19)
(51.0911 7.34272 4.39722e-19)
(51.0707 7.25193 -5.01571e-19)
(51.1503 6.95437 5.26769e-19)
(52.0824 -0.00200361 -3.05892e-20)
(52.0806 0.000648603 0)
(52.0818 -0.000710877 -2.05157e-20)
(52.0823 -0.000619849 4.0192e-20)
(52.0831 -0.000825142 0)
(52.084 -0.00101607 -3.91452e-23)
(52.0852 -0.00122073 2.77753e-20)
(52.0864 -0.00141378 -4.10423e-20)
(52.088 -0.00156108 2.94797e-24)
(52.0897 -0.00170588 1.84065e-20)
(52.0916 -0.00168517 5.19471e-24)
(52.0938 -0.00141349 1.19728e-24)