/*--------------------------------*- C++ -*----------------------------------*\
| =========                 |                                                 |
| \\      /  F ield         | OpenFOAM: The Open Source CFD Toolbox           |
|  \\    /   O peration     | Version:  2406                                  |
|   \\  /    A nd           | Website:  www.openfoam.com                      |
|    \\/     M anipulation  |                                                 |
\*---------------------------------------------------------------------------*/
FoamFile
{
    version     2.0;
    format      ascii;
    arch        "LSB;label=32;scalar=64";
    class       surfaceScalarField;
    location    "6.4416e-05";
    object      phi;
}
// * * * * * * * * * * * * * * * * * * * * * * * * * * * * * * * * * * * * * //

dimensions      [1 0 -1 0 0 0 0];

oriented        oriented;

internalField   nonuniform List<scalar> 
7860
(
-5.77899e-07
9.86649e-07
-9.69635e-07
9.55064e-07
-9.89362e-07
9.68997e-07
-8.30801e-07
9.99133e-07
-6.43617e-07
1.01121e-06
-4.87784e-07
1.00267e-06
-3.72331e-07
9.80448e-07
-2.89346e-07
9.51083e-07
-2.29234e-07
9.18867e-07
-1.84708e-07
8.86257e-07
-1.50903e-07
8.54542e-07
-1.24659e-07
8.2434e-07
-1.03904e-07
7.95903e-07
-8.72322e-08
7.69285e-07
-7.3666e-08
7.44439e-07
-6.25079e-08
7.21283e-07
-5.32501e-08
6.99715e-07
-4.55138e-08
6.79625e-07
-3.89991e-08
6.60904e-07
-3.3493e-08
6.43449e-07
-2.88147e-08
6.27162e-07
-2.482e-08
6.11956e-07
-2.13967e-08
5.97752e-07
-1.84566e-08
5.8448e-07
-1.59227e-08
5.72076e-07
-1.37348e-08
5.60482e-07
-1.1842e-08
5.49647e-07
-1.02018e-08
5.39525e-07
-8.77854e-09
5.30076e-07
-7.54217e-09
5.21261e-07
-6.46718e-09
5.13049e-07
-5.53175e-09
5.05408e-07
-4.71719e-09
4.98312e-07
-4.00733e-09
4.91738e-07
-3.38821e-09
4.85662e-07
-2.84765e-09
4.80067e-07
-2.37503e-09
4.74935e-07
-1.96099e-09
4.70249e-07
-1.59726e-09
4.65998e-07
-1.27652e-09
4.62167e-07
-9.92421e-10
4.58747e-07
-7.3957e-10
4.55729e-07
-5.13476e-10
4.53103e-07
-3.10505e-10
4.5086e-07
-1.25046e-10
4.48995e-07
5.31674e-11
4.47509e-07
2.32088e-10
4.46403e-07
4.17711e-10
4.45682e-07
6.08095e-10
4.45363e-07
8.01061e-10
4.45446e-07
1.00277e-09
4.45914e-07
1.21756e-09
4.46763e-07
1.45036e-09
4.47991e-07
1.70675e-09
4.49599e-07
1.99256e-09
4.51587e-07
2.31395e-09
4.53959e-07
2.67764e-09
4.56719e-07
3.09094e-09
4.59873e-07
3.56198e-09
4.63429e-07
4.09985e-09
4.67395e-07
4.71479e-09
4.7178e-07
5.41835e-09
4.76597e-07
6.22376e-09
4.81859e-07
7.146e-09
4.87579e-07
8.20234e-09
4.93775e-07
9.41263e-09
5.00465e-07
1.07998e-08
5.0767e-07
1.23905e-08
5.15412e-07
1.42158e-08
5.23718e-07
1.63117e-08
5.32614e-07
1.87207e-08
5.42134e-07
2.14928e-08
5.5231e-07
2.46872e-08
5.63182e-07
2.83743e-08
5.74792e-07
3.2638e-08
5.87185e-07
3.75789e-08
6.00411e-07
4.33185e-08
6.14525e-07
5.00047e-08
6.29584e-07
5.78226e-08
6.45644e-07
6.70206e-08
6.62761e-07
7.79758e-08
6.80991e-07
9.0836e-08
7.00782e-07
1.06166e-07
7.21855e-07
1.24578e-07
7.44315e-07
1.46869e-07
7.68256e-07
1.74107e-07
7.93733e-07
2.07756e-07
8.20747e-07
2.49887e-07
8.49201e-07
3.03471e-07
8.78854e-07
3.72886e-07
9.09173e-07
4.64684e-07
9.39108e-07
5.88582e-07
9.66701e-07
7.58217e-07
9.88432e-07
9.89124e-07
9.98198e-07
1.28767e-06
9.86234e-07
1.61288e-06
9.39023e-07
1.78654e-06
8.44438e-07
1.42938e-06
7.20624e-07
3.75802e-07
6.73849e-07
8.2789e-07
-4.35553e-07
6.74176e-07
-8.27342e-07
6.86086e-07
-9.38017e-07
6.82006e-07
-9.16758e-07
6.81857e-07
-8.41632e-07
6.8115e-07
-7.51092e-07
6.77466e-07
-6.62173e-07
6.70016e-07
-5.815e-07
6.59234e-07
-5.10842e-07
6.45968e-07
-4.49989e-07
6.31064e-07
-3.97916e-07
6.15199e-07
-3.53408e-07
5.98926e-07
-3.15298e-07
5.82653e-07
-2.82556e-07
5.66663e-07
-2.54233e-07
5.5115e-07
-2.29598e-07
5.36218e-07
-2.0806e-07
5.21923e-07
-1.89129e-07
5.08291e-07
-1.72405e-07
4.95328e-07
-1.57564e-07
4.8305e-07
-1.44327e-07
4.71425e-07
-1.3246e-07
4.60433e-07
-1.21771e-07
4.50055e-07
-1.121e-07
4.40266e-07
-1.03309e-07
4.31043e-07
-9.52853e-08
4.22361e-07
-8.79304e-08
4.14197e-07
-8.11608e-08
4.06529e-07
-7.49048e-08
3.99336e-07
-6.91006e-08
3.92598e-07
-6.36945e-08
3.86296e-07
-5.86397e-08
3.80415e-07
-5.38951e-08
3.74938e-07
-4.94247e-08
3.6985e-07
-4.51964e-08
3.65139e-07
-4.11821e-08
3.60792e-07
-3.73563e-08
3.56799e-07
-3.36965e-08
3.53151e-07
-3.01822e-08
3.49837e-07
-2.67948e-08
3.46851e-07
-2.35172e-08
3.44185e-07
-2.03334e-08
3.41833e-07
-1.72271e-08
3.39789e-07
-1.41783e-08
3.38041e-07
-1.11626e-08
3.36581e-07
-8.15744e-09
3.35411e-07
-5.14215e-09
3.34538e-07
-2.09817e-09
3.33965e-07
9.46424e-10
3.33759e-07
3.96776e-09
3.33915e-07
6.98537e-09
3.34371e-07
1.00134e-08
3.35131e-07
1.3067e-08
3.36191e-07
1.61625e-08
3.37549e-07
1.93162e-08
3.39207e-07
2.25445e-08
3.41166e-07
2.58643e-08
3.43431e-07
2.92932e-08
3.46005e-07
3.285e-08
3.48893e-07
3.65551e-08
3.521e-07
4.04304e-08
3.55634e-07
4.45003e-08
3.59502e-07
4.87921e-08
3.63712e-07
5.33352e-08
3.68273e-07
5.81633e-08
3.73196e-07
6.33142e-08
3.78492e-07
6.88307e-08
3.84173e-07
7.47614e-08
3.90253e-07
8.11616e-08
3.96746e-07
8.80948e-08
4.03669e-07
9.56332e-08
4.11037e-07
1.0386e-07
4.18869e-07
1.12873e-07
4.27184e-07
1.22781e-07
4.36002e-07
1.33713e-07
4.45343e-07
1.45815e-07
4.55232e-07
1.59255e-07
4.65691e-07
1.7422e-07
4.76749e-07
1.90949e-07
4.8844e-07
2.09897e-07
5.00797e-07
2.32866e-07
5.13794e-07
2.57345e-07
5.26953e-07
2.85272e-07
5.40714e-07
3.17457e-07
5.55046e-07
3.54655e-07
5.69832e-07
3.97778e-07
5.84913e-07
4.47933e-07
6.00067e-07
5.06535e-07
6.14981e-07
5.75098e-07
6.2917e-07
6.55178e-07
6.41961e-07
7.48126e-07
6.5245e-07
8.54474e-07
6.59453e-07
9.72622e-07
6.61511e-07
1.09648e-06
6.56973e-07
1.21106e-06
6.4413e-07
1.28528e-06
6.21962e-07
1.25856e-06
5.93091e-07
1.02914e-06
5.68141e-07
4.2788e-07
5.69845e-07
6.28383e-07
-4.42892e-07
5.91934e-07
-7.92399e-07
6.09671e-07
-8.78936e-07
6.07654e-07
-8.66164e-07
6.04302e-07
-8.18765e-07
6.00309e-07
-7.60456e-07
5.95433e-07
-6.99987e-07
5.8926e-07
-6.41025e-07
5.81713e-07
-5.85404e-07
5.72904e-07
-5.34117e-07
5.63044e-07
-4.8726e-07
5.52435e-07
-4.44779e-07
5.41312e-07
-4.06442e-07
5.29883e-07
-3.71925e-07
5.18328e-07
-3.40934e-07
5.06792e-07
-3.131e-07
4.95398e-07
-2.88064e-07
4.84241e-07
-2.65475e-07
4.73393e-07
-2.44949e-07
4.62902e-07
-2.26416e-07
4.52768e-07
-2.09557e-07
4.43043e-07
-1.94159e-07
4.33741e-07
-1.80049e-07
4.24864e-07
-1.67076e-07
4.16411e-07
-1.55109e-07
4.08379e-07
-1.44032e-07
4.00759e-07
-1.33744e-07
3.93546e-07
-1.24156e-07
3.86728e-07
-1.15191e-07
3.80297e-07
-1.06779e-07
3.74243e-07
-9.88609e-08
3.68556e-07
-9.13818e-08
3.63226e-07
-8.42939e-08
3.58244e-07
-7.75543e-08
3.53601e-07
-7.11246e-08
3.49289e-07
-6.497e-08
3.453e-07
-5.90593e-08
3.41626e-07
-5.33639e-08
3.3826e-07
-4.78574e-08
3.35198e-07
-4.25156e-08
3.32432e-07
-3.73156e-08
3.29958e-07
-3.22359e-08
3.2777e-07
-2.72546e-08
3.25863e-07
-2.23461e-08
3.24221e-07
-1.74821e-08
3.22833e-07
-1.26377e-08
3.21705e-07
-7.79157e-09
3.20847e-07
-2.93217e-09
3.20272e-07
1.92127e-09
3.20079e-07
6.75777e-09
3.20253e-07
1.1594e-08
3.20706e-07
1.64451e-08
3.21442e-07
2.13288e-08
3.22455e-07
2.62647e-08
3.23741e-07
3.1273e-08
3.25302e-07
3.63742e-08
3.27138e-07
4.15899e-08
3.29253e-07
4.69425e-08
3.31649e-07
5.24559e-08
3.34329e-07
5.81557e-08
3.37299e-07
6.40691e-08
3.40562e-07
7.0226e-08
3.44123e-07
7.66588e-08
3.47988e-07
8.34032e-08
3.52162e-07
9.04986e-08
3.56652e-07
9.79888e-08
3.61465e-07
1.05923e-07
3.66608e-07
1.14355e-07
3.72088e-07
1.23346e-07
3.77914e-07
1.32965e-07
3.84091e-07
1.43291e-07
3.90629e-07
1.54413e-07
3.97533e-07
1.6643e-07
4.0481e-07
1.79461e-07
4.12464e-07
1.93637e-07
4.20499e-07
2.09116e-07
4.28914e-07
2.26081e-07
4.37703e-07
2.44751e-07
4.46854e-07
2.65368e-07
4.56343e-07
2.88036e-07
4.66133e-07
3.11598e-07
4.76213e-07
3.39367e-07
4.86673e-07
3.7031e-07
4.97299e-07
4.04669e-07
5.07981e-07
4.42892e-07
5.18604e-07
4.85451e-07
5.2901e-07
5.32792e-07
5.38992e-07
5.85171e-07
5.48287e-07
6.42764e-07
5.56581e-07
7.05477e-07
5.63506e-07
7.72728e-07
5.68645e-07
8.43176e-07
5.7156e-07
9.14359e-07
5.71842e-07
9.82072e-07
5.69192e-07
1.03919e-06
5.63547e-07
1.07184e-06
5.55347e-07
1.0494e-06
5.4617e-07
8.92052e-07
5.39777e-07
3.90312e-07
5.46201e-07
5.87944e-07
-4.41326e-07
5.27961e-07
-7.89625e-07
5.54639e-07
-8.74069e-07
5.54993e-07
-8.63882e-07
5.52029e-07
-8.23883e-07
5.48072e-07
-7.75912e-07
5.43489e-07
-7.26717e-07
5.38136e-07
-6.78513e-07
5.31983e-07
-6.32162e-07
5.25095e-07
-5.87943e-07
5.17569e-07
-5.46325e-07
5.09501e-07
-5.07422e-07
5.01014e-07
-4.71237e-07
4.92229e-07
-4.37701e-07
4.83256e-07
-4.06705e-07
4.74195e-07
-3.78099e-07
4.65131e-07
-3.51708e-07
4.56137e-07
-3.27369e-07
4.47275e-07
-3.04998e-07
4.38593e-07
-2.84231e-07
4.30141e-07
-2.65e-07
4.2194e-07
-2.47168e-07
4.14011e-07
-2.30599e-07
4.06372e-07
-2.15166e-07
3.99034e-07
-2.00758e-07
3.92006e-07
-1.87272e-07
3.85291e-07
-1.74615e-07
3.78892e-07
-1.62707e-07
3.72808e-07
-1.51471e-07
3.67039e-07
-1.40842e-07
3.6158e-07
-1.30758e-07
3.56429e-07
-1.21166e-07
3.51582e-07
-1.12015e-07
3.47034e-07
-1.0326e-07
3.42781e-07
-9.48609e-08
3.38817e-07
-8.67794e-08
3.3514e-07
-7.89814e-08
3.31744e-07
-7.1435e-08
3.28626e-07
-6.41108e-08
3.2578e-07
-5.69813e-08
3.23205e-07
-5.00204e-08
3.20895e-07
-4.32034e-08
3.18847e-07
-3.65053e-08
3.17054e-07
-2.98972e-08
3.15498e-07
-2.33488e-08
3.14165e-07
-1.68335e-08
3.13066e-07
-1.03281e-08
3.12213e-07
-3.82029e-09
3.11632e-07
2.67707e-09
3.11444e-07
9.16045e-09
3.11628e-07
1.56487e-08
3.12071e-07
2.21587e-08
3.1278e-07
2.87101e-08
3.13747e-07
3.53249e-08
3.14965e-07
4.20257e-08
3.16434e-07
4.88359e-08
3.18156e-07
5.57795e-08
3.20132e-07
6.28817e-08
3.22365e-07
7.0169e-08
3.24856e-07
7.76695e-08
3.27609e-07
8.54132e-08
3.30625e-07
9.34323e-08
3.33907e-07
1.01762e-07
3.37459e-07
1.1044e-07
3.41283e-07
1.19508e-07
3.45382e-07
1.29011e-07
3.4976e-07
1.39e-07
3.54419e-07
1.49528e-07
3.59362e-07
1.60657e-07
3.64591e-07
1.72453e-07
3.70107e-07
1.84989e-07
3.75912e-07
1.98349e-07
3.82004e-07
2.12622e-07
3.8838e-07
2.27909e-07
3.95037e-07
2.44321e-07
4.01966e-07
2.6198e-07
4.09157e-07
2.81018e-07
4.16594e-07
3.01576e-07
4.24256e-07
3.23794e-07
4.32116e-07
3.47798e-07
4.40141e-07
3.73712e-07
4.48297e-07
4.0196e-07
4.56542e-07
4.32685e-07
4.64793e-07
4.66007e-07
4.72953e-07
5.02065e-07
4.80921e-07
5.40972e-07
4.88577e-07
5.82768e-07
4.95781e-07
6.27381e-07
5.02377e-07
6.74604e-07
5.08195e-07
7.2404e-07
5.13059e-07
7.75051e-07
5.16795e-07
8.26696e-07
5.19253e-07
8.77656e-07
5.20322e-07
9.25981e-07
5.19974e-07
9.68075e-07
5.18312e-07
9.9485e-07
5.15696e-07
9.79121e-07
5.12973e-07
8.41699e-07
5.11941e-07
3.6343e-07
5.1728e-07
5.36396e-07
-4.43325e-07
4.69121e-07
-7.94633e-07
5.06011e-07
-8.8224e-07
5.08763e-07
-8.75763e-07
5.06351e-07
-8.4017e-07
5.02758e-07
-7.97148e-07
4.98721e-07
-7.53165e-07
4.94186e-07
-7.10051e-07
4.89121e-07
-6.68408e-07
4.83548e-07
-6.28484e-07
4.7752e-07
-5.90405e-07
4.71102e-07
-5.54263e-07
4.64362e-07
-5.20088e-07
4.57372e-07
-4.87871e-07
4.50202e-07
-4.57569e-07
4.42917e-07
-4.29118e-07
4.35578e-07
-4.02432e-07
4.2824e-07
-3.7742e-07
4.20949e-07
-3.53983e-07
4.13748e-07
-3.32e-07
4.06674e-07
-3.11368e-07
3.99753e-07
-2.91989e-07
3.93012e-07
-2.73763e-07
3.86469e-07
-2.56599e-07
3.80139e-07
-2.40408e-07
3.74036e-07
-2.25107e-07
3.68169e-07
-2.1062e-07
3.62546e-07
-1.96876e-07
3.5717e-07
-1.8381e-07
3.52046e-07
-1.71359e-07
3.47175e-07
-1.5947e-07
3.42559e-07
-1.48089e-07
3.38197e-07
-1.3717e-07
3.3409e-07
-1.26669e-07
3.30235e-07
-1.16545e-07
3.26632e-07
-1.06761e-07
3.23278e-07
-9.72821e-08
3.20172e-07
-8.80752e-08
3.17311e-07
-7.91096e-08
3.14695e-07
-7.03563e-08
3.12319e-07
-6.17878e-08
3.10183e-07
-5.33776e-08
3.08284e-07
-4.50989e-08
3.06613e-07
-3.69218e-08
3.05148e-07
-2.88155e-08
3.03877e-07
-2.07534e-08
3.02814e-07
-1.27119e-08
3.01974e-07
-4.67804e-09
3.01392e-07
3.34008e-09
3.01213e-07
1.13442e-08
3.01404e-07
1.93543e-08
3.01835e-07
2.73892e-08
3.02514e-07
3.54699e-08
3.03429e-07
4.36195e-08
3.04573e-07
5.18619e-08
3.05945e-07
6.02218e-08
3.07546e-07
6.87246e-08
3.09376e-07
7.73968e-08
3.11437e-07
8.62662e-08
3.1373e-07
9.5362e-08
3.16255e-07
1.04715e-07
3.19015e-07
1.14358e-07
3.22009e-07
1.24326e-07
3.25239e-07
1.34658e-07
3.28705e-07
1.45392e-07
3.32408e-07
1.56573e-07
3.36348e-07
1.68248e-07
3.40525e-07
1.80468e-07
3.44938e-07
1.93289e-07
3.49584e-07
2.06769e-07
3.54462e-07
2.20975e-07
3.59566e-07
2.35974e-07
3.64893e-07
2.51844e-07
3.70433e-07
2.68665e-07
3.76178e-07
2.86521e-07
3.82116e-07
3.05505e-07
3.88231e-07
3.25711e-07
3.94504e-07
3.47238e-07
4.00912e-07
3.70185e-07
4.07427e-07
3.94654e-07
4.14015e-07
4.2075e-07
4.20639e-07
4.48589e-07
4.2725e-07
4.78253e-07
4.33793e-07
5.09817e-07
4.40202e-07
5.43306e-07
4.46403e-07
5.78714e-07
4.52317e-07
6.15985e-07
4.57858e-07
6.54997e-07
4.62937e-07
6.95553e-07
4.67464e-07
7.37366e-07
4.71355e-07
7.8005e-07
4.74537e-07
8.23105e-07
4.76959e-07
8.65863e-07
4.786e-07
9.0723e-07
4.79492e-07
9.44632e-07
4.79748e-07
9.70046e-07
4.79632e-07
9.57155e-07
4.79622e-07
8.26132e-07
4.80326e-07
3.56151e-07
4.82391e-07
4.79539e-07
-4.49216e-07
4.17132e-07
-8.03196e-07
4.60974e-07
-8.93385e-07
4.6587e-07
-8.8991e-07
4.64188e-07
-8.57633e-07
4.61103e-07
-8.18049e-07
4.57636e-07
-7.77463e-07
4.53822e-07
-7.37611e-07
4.49636e-07
-6.98989e-07
4.45084e-07
-6.61774e-07
4.40196e-07
-6.26047e-07
4.35008e-07
-5.91851e-07
4.29566e-07
-5.59206e-07
4.23915e-07
-5.28108e-07
4.18102e-07
-4.98536e-07
4.12172e-07
-4.70454e-07
4.0617e-07
-4.43813e-07
4.00134e-07
-4.18556e-07
3.94103e-07
-3.94617e-07
3.88109e-07
-3.71928e-07
3.82182e-07
-3.50414e-07
3.76348e-07
-3.30006e-07
3.7063e-07
-3.10631e-07
3.65047e-07
-2.92219e-07
3.59614e-07
-2.74703e-07
3.54347e-07
-2.58018e-07
3.49257e-07
-2.42101e-07
3.44353e-07
-2.26894e-07
3.39643e-07
-2.12341e-07
3.35133e-07
-1.98389e-07
3.30828e-07
-1.84989e-07
3.26731e-07
-1.72096e-07
3.22846e-07
-1.59665e-07
3.19174e-07
-1.47656e-07
3.15716e-07
-1.3603e-07
3.12474e-07
-1.24751e-07
3.09447e-07
-1.13786e-07
3.06635e-07
-1.03103e-07
3.04039e-07
-9.26701e-08
3.01657e-07
-8.24598e-08
2.99489e-07
-7.24438e-08
2.97533e-07
-6.25955e-08
2.95788e-07
-5.28879e-08
2.94245e-07
-4.32908e-08
2.9288e-07
-3.37742e-08
2.91678e-07
-2.43126e-08
2.90659e-07
-1.4882e-08
2.8984e-07
-5.46931e-09
2.89267e-07
3.92298e-09
2.891e-07
1.33021e-08
2.89296e-07
2.26891e-08
2.89711e-07
3.21037e-08
2.90355e-07
4.15678e-08
2.91214e-07
5.11048e-08
2.92278e-07
6.07389e-08
2.93548e-07
7.04949e-08
2.95022e-07
8.03984e-08
2.96701e-07
9.0476e-08
2.98585e-07
1.00755e-07
3.00674e-07
1.11265e-07
3.02969e-07
1.22035e-07
3.05469e-07
1.33097e-07
3.08173e-07
1.44486e-07
3.11082e-07
1.56236e-07
3.14193e-07
1.68386e-07
3.17506e-07
1.80976e-07
3.21019e-07
1.94048e-07
3.24728e-07
2.07649e-07
3.28631e-07
2.21825e-07
3.32724e-07
2.36629e-07
3.37001e-07
2.52115e-07
3.41456e-07
2.68339e-07
3.4608e-07
2.85362e-07
3.50865e-07
3.03246e-07
3.55798e-07
3.22056e-07
3.60867e-07
3.4186e-07
3.66053e-07
3.62725e-07
3.7134e-07
3.84718e-07
3.76703e-07
4.07907e-07
3.82118e-07
4.32354e-07
3.87556e-07
4.58118e-07
3.92983e-07
4.85253e-07
3.98362e-07
5.13795e-07
4.03651e-07
5.43766e-07
4.08804e-07
5.75166e-07
4.13773e-07
6.07966e-07
4.18505e-07
6.42109e-07
4.22948e-07
6.77502e-07
4.27051e-07
7.14015e-07
4.30766e-07
7.51476e-07
4.34053e-07
7.8967e-07
4.36882e-07
8.28333e-07
4.39238e-07
8.67089e-07
4.4113e-07
9.05196e-07
4.42598e-07
9.40464e-07
4.4373e-07
9.65282e-07
4.44696e-07
9.53695e-07
4.45696e-07
8.25715e-07
4.46555e-07
3.59005e-07
4.45087e-07
4.26305e-07
-4.55043e-07
3.71475e-07
-8.11639e-07
4.1902e-07
-9.0399e-07
4.25483e-07
-9.02844e-07
4.24529e-07
-8.73073e-07
4.22017e-07
-8.36059e-07
4.19119e-07
-7.98001e-07
4.15944e-07
-7.60558e-07
4.12484e-07
-7.2417e-07
4.08748e-07
-6.88971e-07
4.04751e-07
-6.55014e-07
4.00519e-07
-6.22324e-07
3.96082e-07
-5.90911e-07
3.9147e-07
-5.60771e-07
3.86716e-07
-5.31892e-07
3.81852e-07
-5.04248e-07
3.7691e-07
-4.77807e-07
3.7192e-07
-4.52533e-07
3.66911e-07
-4.28379e-07
3.61909e-07
-4.05298e-07
3.56939e-07
-3.8324e-07
3.52022e-07
-3.62151e-07
3.47179e-07
-3.4198e-07
3.42427e-07
-3.22672e-07
3.37781e-07
-3.04176e-07
3.33256e-07
-2.86441e-07
3.28863e-07
-2.69416e-07
3.24612e-07
-2.53054e-07
3.20512e-07
-2.37306e-07
3.16571e-07
-2.2213e-07
3.12795e-07
-2.07482e-07
3.09189e-07
-1.93322e-07
3.05756e-07
-1.79611e-07
3.02502e-07
-1.66313e-07
2.99428e-07
-1.53392e-07
2.96536e-07
-1.40814e-07
2.93829e-07
-1.2855e-07
2.91308e-07
-1.16567e-07
2.88973e-07
-1.04836e-07
2.86825e-07
-9.33314e-08
2.84864e-07
-8.20244e-08
2.8309e-07
-7.08895e-08
2.81501e-07
-5.99001e-08
2.8009e-07
-4.90271e-08
2.78827e-07
-3.82423e-08
2.77701e-07
-2.75217e-08
2.76734e-07
-1.68419e-08
2.75944e-07
-6.18968e-09
2.75387e-07
4.43794e-09
2.75234e-07
1.50535e-08
2.75432e-07
2.56781e-08
2.75829e-07
3.63322e-08
2.76434e-07
4.70378e-08
2.77233e-07
5.78179e-08
2.78216e-07
6.86962e-08
2.7938e-07
7.96969e-08
2.80726e-07
9.08449e-08
2.82253e-07
1.02166e-07
2.83961e-07
1.13687e-07
2.85849e-07
1.25434e-07
2.87916e-07
1.37437e-07
2.90161e-07
1.49726e-07
2.92583e-07
1.62331e-07
2.9518e-07
1.75286e-07
2.9795e-07
1.88625e-07
3.0089e-07
2.02383e-07
3.03997e-07
2.16599e-07
3.07267e-07
2.31312e-07
3.10695e-07
2.46562e-07
3.14277e-07
2.62393e-07
3.18004e-07
2.7885e-07
3.21871e-07
2.95978e-07
3.25867e-07
3.13826e-07
3.29983e-07
3.32441e-07
3.34207e-07
3.51873e-07
3.38525e-07
3.7217e-07
3.42923e-07
3.93381e-07
3.47382e-07
4.15553e-07
3.51883e-07
4.3873e-07
3.56405e-07
4.62953e-07
3.60923e-07
4.88257e-07
3.65411e-07
5.14669e-07
3.6984e-07
5.42209e-07
3.7418e-07
5.70883e-07
3.78399e-07
6.00685e-07
3.82463e-07
6.31593e-07
3.8634e-07
6.63566e-07
3.89996e-07
6.96548e-07
3.93402e-07
7.30463e-07
3.96532e-07
7.65217e-07
3.99364e-07
8.007e-07
4.01888e-07
8.36771e-07
4.04101e-07
8.7321e-07
4.06016e-07
9.09444e-07
4.07662e-07
9.43473e-07
4.09093e-07
9.67872e-07
4.10395e-07
9.56816e-07
4.11578e-07
8.3013e-07
4.11983e-07
3.64039e-07
4.07681e-07
3.78591e-07
-4.59873e-07
3.30911e-07
-8.18895e-07
3.79738e-07
-9.13185e-07
3.87186e-07
-9.13978e-07
3.86838e-07
-8.86197e-07
3.84868e-07
-8.51178e-07
3.825e-07
-8.15069e-07
3.79889e-07
-7.79485e-07
3.77045e-07
-7.44831e-07
3.73976e-07
-7.11212e-07
3.70698e-07
-6.78662e-07
3.67229e-07
-6.47193e-07
3.6359e-07
-6.16807e-07
3.59803e-07
-5.87498e-07
3.55893e-07
-5.59255e-07
3.51883e-07
-5.3206e-07
3.47796e-07
-5.05889e-07
3.43656e-07
-4.80714e-07
3.39485e-07
-4.56504e-07
3.35305e-07
-4.33223e-07
3.31134e-07
-4.10834e-07
3.26992e-07
-3.89297e-07
3.22895e-07
-3.68572e-07
3.18859e-07
-3.48618e-07
3.14898e-07
-3.29395e-07
3.11024e-07
-3.1086e-07
3.07249e-07
-2.92975e-07
3.03583e-07
-2.75698e-07
3.00035e-07
-2.58992e-07
2.96611e-07
-2.42819e-07
2.9332e-07
-2.27143e-07
2.90167e-07
-2.11928e-07
2.87157e-07
-1.9714e-07
2.84294e-07
-1.82748e-07
2.81582e-07
-1.68718e-07
2.79024e-07
-1.55022e-07
2.76623e-07
-1.4163e-07
2.7438e-07
-1.28514e-07
2.72298e-07
-1.15647e-07
2.70377e-07
-1.03002e-07
2.68619e-07
-9.05551e-08
2.67024e-07
-7.82802e-08
2.6559e-07
-6.61526e-08
2.64309e-07
-5.41448e-08
2.63151e-07
-4.22311e-08
2.62103e-07
-3.03892e-08
2.61194e-07
-1.85971e-08
2.60441e-07
-6.84151e-09
2.59908e-07
4.886e-09
2.59771e-07
1.66025e-08
2.59968e-07
2.8329e-08
2.60344e-07
4.00861e-08
2.60908e-07
5.18951e-08
2.61646e-07
6.37782e-08
2.62546e-07
7.57581e-08
2.63606e-07
8.78579e-08
2.64825e-07
1.00101e-07
2.66203e-07
1.12513e-07
2.67739e-07
1.25117e-07
2.69431e-07
1.37939e-07
2.71279e-07
1.51007e-07
2.7328e-07
1.64347e-07
2.75433e-07
1.77987e-07
2.77736e-07
1.91958e-07
2.80184e-07
2.0629e-07
2.82775e-07
2.21014e-07
2.85506e-07
2.36163e-07
2.88371e-07
2.51772e-07
2.91365e-07
2.67873e-07
2.94482e-07
2.84505e-07
2.97716e-07
3.01702e-07
3.01058e-07
3.19503e-07
3.045e-07
3.37945e-07
3.08032e-07
3.57065e-07
3.11642e-07
3.76903e-07
3.15319e-07
3.97494e-07
3.19049e-07
4.18874e-07
3.22816e-07
4.41078e-07
3.26605e-07
4.64136e-07
3.30397e-07
4.88077e-07
3.34173e-07
5.12925e-07
3.37912e-07
5.38698e-07
3.41594e-07
5.65408e-07
3.45194e-07
5.93061e-07
3.48692e-07
6.21654e-07
3.52063e-07
6.51175e-07
3.55286e-07
6.81604e-07
3.5834e-07
7.12913e-07
3.61206e-07
7.45065e-07
3.63868e-07
7.78017e-07
3.66315e-07
8.1172e-07
3.6854e-07
8.46109e-07
3.70545e-07
8.81043e-07
3.72335e-07
9.16036e-07
3.73926e-07
9.49172e-07
3.75345e-07
9.73095e-07
3.76622e-07
9.61993e-07
3.7765e-07
8.3551e-07
3.77474e-07
3.68819e-07
3.7118e-07
3.35946e-07
-4.63732e-07
2.94301e-07
-8.24871e-07
3.42666e-07
-9.20867e-07
3.50619e-07
-9.23318e-07
3.50736e-07
-8.97181e-07
3.49236e-07
-8.63774e-07
3.47333e-07
-8.2922e-07
3.4521e-07
-7.95113e-07
3.42887e-07
-7.61838e-07
3.40376e-07
-7.29486e-07
3.37688e-07
-6.98076e-07
3.34841e-07
-6.67611e-07
3.31849e-07
-6.38087e-07
3.28732e-07
-6.09495e-07
3.25506e-07
-5.81823e-07
3.2219e-07
-5.55057e-07
3.18803e-07
-5.29176e-07
3.15362e-07
-5.04159e-07
3.11885e-07
-4.79981e-07
3.08389e-07
-4.56615e-07
3.0489e-07
-4.34031e-07
3.01404e-07
-4.122e-07
2.97944e-07
-3.91088e-07
2.94524e-07
-3.70665e-07
2.91156e-07
-3.50897e-07
2.87852e-07
-3.31751e-07
2.84621e-07
-3.13194e-07
2.81473e-07
-2.95193e-07
2.78417e-07
-2.77717e-07
2.7546e-07
-2.60733e-07
2.72609e-07
-2.4421e-07
2.6987e-07
-2.28119e-07
2.67247e-07
-2.12429e-07
2.64746e-07
-1.97112e-07
2.62371e-07
-1.82139e-07
2.60125e-07
-1.67485e-07
2.58011e-07
-1.53122e-07
2.56032e-07
-1.39025e-07
2.5419e-07
-1.25169e-07
2.52486e-07
-1.1153e-07
2.50923e-07
-9.80839e-08
2.495e-07
-8.4808e-08
2.48217e-07
-7.16786e-08
2.47064e-07
-5.86707e-08
2.4601e-07
-4.57612e-08
2.45045e-07
-3.29302e-08
2.44198e-07
-2.01569e-08
2.43487e-07
-7.42804e-09
2.42985e-07
5.27004e-09
2.42865e-07
1.79583e-08
2.43059e-07
3.06572e-08
2.43412e-07
4.3387e-08
2.43934e-07
5.61682e-08
2.4461e-07
6.90218e-08
2.45427e-07
8.19691e-08
2.46385e-07
9.50319e-08
2.47481e-07
1.08232e-07
2.48715e-07
1.21592e-07
2.50085e-07
1.35136e-07
2.51591e-07
1.48886e-07
2.53231e-07
1.62867e-07
2.55002e-07
1.77104e-07
2.56903e-07
1.91622e-07
2.5893e-07
2.06448e-07
2.61081e-07
2.21608e-07
2.63351e-07
2.3713e-07
2.65736e-07
2.53043e-07
2.68233e-07
2.69375e-07
2.70834e-07
2.86155e-07
2.73535e-07
3.03415e-07
2.76329e-07
3.21183e-07
2.79208e-07
3.39491e-07
2.82164e-07
3.58369e-07
2.85188e-07
3.77848e-07
2.8827e-07
3.97956e-07
2.91399e-07
4.18725e-07
2.94564e-07
4.4018e-07
2.97751e-07
4.62348e-07
3.00946e-07
4.85255e-07
3.04136e-07
5.08921e-07
3.07305e-07
5.33365e-07
3.10438e-07
5.58604e-07
3.13516e-07
5.84648e-07
3.16525e-07
6.11506e-07
3.19447e-07
6.39181e-07
3.22266e-07
6.67673e-07
3.24966e-07
6.96976e-07
3.27533e-07
7.27084e-07
3.29954e-07
7.57986e-07
3.32218e-07
7.89672e-07
3.34317e-07
8.2213e-07
3.36245e-07
8.55334e-07
3.38002e-07
8.89185e-07
3.39586e-07
9.23237e-07
3.41004e-07
9.55605e-07
3.42264e-07
9.78955e-07
3.43361e-07
9.67461e-07
3.4412e-07
8.40605e-07
3.43443e-07
3.7287e-07
3.35872e-07
2.97481e-07
-4.66812e-07
2.60749e-07
-8.29741e-07
3.07375e-07
-9.27204e-07
3.15457e-07
-9.31068e-07
3.15916e-07
-9.06307e-07
3.14803e-07
-8.74229e-07
3.13295e-07
-8.40946e-07
3.11587e-07
-8.0804e-07
3.09705e-07
-7.75886e-07
3.0766e-07
-7.44565e-07
3.05464e-07
-7.14091e-07
3.03131e-07
-6.84457e-07
3.00674e-07
-6.55657e-07
2.98107e-07
-6.27679e-07
2.95446e-07
-6.00511e-07
2.92703e-07
-5.74137e-07
2.89895e-07
-5.4854e-07
2.87035e-07
-5.23703e-07
2.84138e-07
-4.99603e-07
2.81217e-07
-4.76219e-07
2.78285e-07
-4.53528e-07
2.75356e-07
-4.31503e-07
2.72441e-07
-4.10121e-07
2.69551e-07
-3.89353e-07
2.66697e-07
-3.69175e-07
2.6389e-07
-3.49557e-07
2.61137e-07
-3.30473e-07
2.58448e-07
-3.11897e-07
2.5583e-07
-2.93799e-07
2.5329e-07
-2.76154e-07
2.50834e-07
-2.58935e-07
2.48469e-07
-2.42117e-07
2.462e-07
-2.25672e-07
2.44031e-07
-2.09576e-07
2.41965e-07
-1.93805e-07
2.40008e-07
-1.78334e-07
2.38162e-07
-1.6314e-07
2.36429e-07
-1.48199e-07
2.34813e-07
-1.33489e-07
2.33314e-07
-1.18988e-07
2.31935e-07
-1.04674e-07
2.30677e-07
-9.05262e-08
2.29538e-07
-7.65224e-08
2.2851e-07
-6.26404e-08
2.27558e-07
-4.88602e-08
2.26677e-07
-3.51641e-08
2.25897e-07
-2.15329e-08
2.25235e-07
-7.95278e-09
2.24768e-07
5.59465e-09
2.24666e-07
1.91336e-08
2.24854e-07
3.26836e-08
2.25183e-07
4.62644e-08
2.25661e-07
5.98954e-08
2.26274e-07
7.35963e-08
2.27011e-07
8.73868e-08
2.27869e-07
1.01287e-07
2.28846e-07
1.15317e-07
2.29943e-07
1.29499e-07
2.31157e-07
1.43852e-07
2.32487e-07
1.58398e-07
2.33932e-07
1.7316e-07
2.35488e-07
1.8816e-07
2.37155e-07
2.0342e-07
2.38928e-07
2.18964e-07
2.40805e-07
2.34816e-07
2.42781e-07
2.50999e-07
2.44853e-07
2.67538e-07
2.47017e-07
2.84459e-07
2.49266e-07
3.01786e-07
2.51595e-07
3.19544e-07
2.53999e-07
3.3776e-07
2.5647e-07
3.56458e-07
2.59001e-07
3.75664e-07
2.61584e-07
3.95404e-07
2.64209e-07
4.15701e-07
2.66869e-07
4.3658e-07
2.69552e-07
4.58063e-07
2.72248e-07
4.80173e-07
2.74945e-07
5.0293e-07
2.77633e-07
5.26353e-07
2.80298e-07
5.5046e-07
2.82929e-07
5.75265e-07
2.85511e-07
6.00782e-07
2.88034e-07
6.27023e-07
2.90483e-07
6.53997e-07
2.92847e-07
6.81712e-07
2.95113e-07
7.10176e-07
2.97272e-07
7.39395e-07
2.99312e-07
7.69375e-07
3.01225e-07
8.00127e-07
3.03004e-07
8.31659e-07
3.04643e-07
8.63965e-07
3.06137e-07
8.96967e-07
3.07482e-07
9.30233e-07
3.08678e-07
9.61891e-07
3.09721e-07
9.8461e-07
3.10589e-07
9.72553e-07
3.11068e-07
8.45099e-07
3.10003e-07
3.76222e-07
3.01736e-07
2.62369e-07
-4.69289e-07
2.29572e-07
-8.33713e-07
2.73501e-07
-9.32419e-07
2.81422e-07
-9.37476e-07
2.82116e-07
-9.13867e-07
2.81316e-07
-8.82896e-07
2.8014e-07
-8.50665e-07
2.78782e-07
-8.18748e-07
2.77272e-07
-7.87517e-07
2.75619e-07
-7.57046e-07
2.73835e-07
-7.27345e-07
2.71932e-07
-6.98404e-07
2.69921e-07
-6.70212e-07
2.67813e-07
-6.42757e-07
2.65622e-07
-6.16024e-07
2.63359e-07
-5.9e-07
2.61036e-07
-5.64667e-07
2.58664e-07
-5.40009e-07
2.56255e-07
-5.16008e-07
2.53821e-07
-4.92644e-07
2.51372e-07
-4.69898e-07
2.48919e-07
-4.47749e-07
2.46471e-07
-4.26174e-07
2.4404e-07
-4.05152e-07
2.41632e-07
-3.84661e-07
2.39258e-07
-3.64677e-07
2.36925e-07
-3.45178e-07
2.34641e-07
-3.2614e-07
2.32411e-07
-3.0754e-07
2.30244e-07
-2.89356e-07
2.28144e-07
-2.71565e-07
2.26117e-07
-2.54143e-07
2.24167e-07
-2.37068e-07
2.223e-07
-2.20319e-07
2.20518e-07
-2.03873e-07
2.18826e-07
-1.8771e-07
2.17227e-07
-1.71807e-07
2.15723e-07
-1.56145e-07
2.14317e-07
-1.40702e-07
2.13011e-07
-1.2546e-07
2.11806e-07
-1.10397e-07
2.10703e-07
-9.54949e-08
2.09702e-07
-8.07339e-08
2.08793e-07
-6.60944e-08
2.07943e-07
-5.15595e-08
2.07147e-07
-3.71133e-08
2.06437e-07
-2.27382e-08
2.05828e-07
-8.41992e-09
2.05401e-07
5.8647e-09
2.05316e-07
2.01422e-08
2.05497e-07
3.44313e-08
2.05799e-07
4.87507e-08
2.06233e-07
6.31189e-08
2.06784e-07
7.7554e-08
2.07442e-07
9.20742e-08
2.08203e-07
1.06698e-07
2.09068e-07
1.21444e-07
2.10034e-07
1.36331e-07
2.111e-07
1.51379e-07
2.12265e-07
1.66607e-07
2.13528e-07
1.82034e-07
2.14885e-07
1.97681e-07
2.16335e-07
2.13568e-07
2.17875e-07
2.29716e-07
2.19501e-07
2.46145e-07
2.2121e-07
2.62878e-07
2.22998e-07
2.79935e-07
2.24861e-07
2.97337e-07
2.26795e-07
3.15108e-07
2.28793e-07
3.33268e-07
2.30851e-07
3.5184e-07
2.32962e-07
3.70846e-07
2.3512e-07
3.90306e-07
2.37318e-07
4.10243e-07
2.39548e-07
4.30678e-07
2.41802e-07
4.51631e-07
2.44072e-07
4.73123e-07
2.46348e-07
4.95173e-07
2.48623e-07
5.17799e-07
2.50885e-07
5.41019e-07
2.53126e-07
5.64852e-07
2.55334e-07
5.89311e-07
2.57501e-07
6.14414e-07
2.59615e-07
6.40176e-07
2.61666e-07
6.66609e-07
2.63646e-07
6.9373e-07
2.65543e-07
7.21552e-07
2.6735e-07
7.50093e-07
2.69057e-07
7.79369e-07
2.70657e-07
8.09401e-07
2.72142e-07
8.40207e-07
2.73506e-07
8.71794e-07
2.74743e-07
9.0409e-07
2.75845e-07
9.36671e-07
2.76808e-07
9.67668e-07
2.77624e-07
9.89754e-07
2.78257e-07
9.77086e-07
2.78477e-07
8.48959e-07
2.7715e-07
3.78982e-07
2.68647e-07
2.29926e-07
-4.71292e-07
2.00245e-07
-8.36961e-07
2.40748e-07
-9.36716e-07
2.48285e-07
-9.42772e-07
2.49124e-07
-9.20127e-07
2.48574e-07
-8.90078e-07
2.47674e-07
-8.58721e-07
2.46611e-07
-8.27626e-07
2.45413e-07
-7.97159e-07
2.44092e-07
-7.67393e-07
2.42655e-07
-7.38334e-07
2.41114e-07
-7.0997e-07
2.39478e-07
-6.82289e-07
2.37758e-07
-6.55277e-07
2.35964e-07
-6.28918e-07
2.34105e-07
-6.03198e-07
2.32192e-07
-5.78101e-07
2.30234e-07
-5.53612e-07
2.28241e-07
-5.29713e-07
2.26222e-07
-5.06388e-07
2.24187e-07
-4.83619e-07
2.22144e-07
-4.61387e-07
2.20101e-07
-4.39675e-07
2.18067e-07
-4.18462e-07
2.16049e-07
-3.97731e-07
2.14055e-07
-3.7746e-07
2.12091e-07
-3.5763e-07
2.10165e-07
-3.38222e-07
2.08281e-07
-3.19216e-07
2.06446e-07
-3.00591e-07
2.04665e-07
-2.82328e-07
2.02942e-07
-2.64406e-07
2.01282e-07
-2.46807e-07
1.99689e-07
-2.29511e-07
1.98167e-07
-2.12498e-07
1.96718e-07
-1.9575e-07
1.95346e-07
-1.79248e-07
1.94054e-07
-1.62972e-07
1.92843e-07
-1.46906e-07
1.91716e-07
-1.31029e-07
1.90674e-07
-1.15326e-07
1.89719e-07
-9.97768e-08
1.88849e-07
-8.43656e-08
1.88055e-07
-6.90753e-08
1.87303e-07
-5.38918e-08
1.86593e-07
-3.88009e-08
1.85957e-07
-2.37866e-08
1.85405e-07
-8.83369e-09
1.85022e-07
6.08532e-09
1.84953e-07
2.09988e-08
1.85123e-07
3.59241e-08
1.85397e-07
5.08795e-08
1.85786e-07
6.58821e-08
1.86276e-07
8.09486e-08
1.86856e-07
9.60958e-08
1.87525e-07
1.1134e-07
1.88281e-07
1.267e-07
1.89124e-07
1.42191e-07
1.90051e-07
1.57831e-07
1.91062e-07
1.73638e-07
1.92155e-07
1.8963e-07
1.93327e-07
2.05825e-07
1.94577e-07
2.22241e-07
1.95902e-07
2.38896e-07
1.97299e-07
2.5581e-07
1.98765e-07
2.73e-07
2.00296e-07
2.90486e-07
2.01888e-07
3.08287e-07
2.03538e-07
3.26423e-07
2.0524e-07
3.44911e-07
2.0699e-07
3.63773e-07
2.08782e-07
3.83026e-07
2.10611e-07
4.02689e-07
2.12471e-07
4.22783e-07
2.14355e-07
4.43325e-07
2.16256e-07
4.64334e-07
2.18168e-07
4.85829e-07
2.20083e-07
5.07828e-07
2.21993e-07
5.30348e-07
2.23891e-07
5.53406e-07
2.25768e-07
5.77021e-07
2.27616e-07
6.0121e-07
2.29426e-07
6.25989e-07
2.31191e-07
6.51376e-07
2.32902e-07
6.77389e-07
2.3455e-07
7.04048e-07
2.36128e-07
7.31371e-07
2.37628e-07
7.59381e-07
2.39041e-07
7.88102e-07
2.40361e-07
8.17559e-07
2.41579e-07
8.47777e-07
2.42689e-07
8.78767e-07
2.43684e-07
9.10461e-07
2.44555e-07
9.42437e-07
2.45295e-07
9.72829e-07
2.45893e-07
9.9431e-07
2.46309e-07
9.81029e-07
2.4631e-07
8.52239e-07
2.44822e-07
3.8126e-07
2.36449e-07
1.99605e-07
-4.72925e-07
1.72369e-07
-8.39628e-07
2.08882e-07
-9.40259e-07
2.15855e-07
-9.4715e-07