/*--------------------------------*- C++ -*----------------------------------*\
| =========                 |                                                 |
| \\      /  F ield         | OpenFOAM: The Open Source CFD Toolbox           |
|  \\    /   O peration     | Version:  2406                                  |
|   \\  /    A nd           | Website:  www.openfoam.com                      |
|    \\/     M anipulation  |                                                 |
\*---------------------------------------------------------------------------*/
FoamFile
{
    version     2.0;
    format      ascii;
    arch        "LSB;label=32;scalar=64";
    class       volVectorField;
    location    "6.4416e-05";
    object      U;
}
// * * * * * * * * * * * * * * * * * * * * * * * * * * * * * * * * * * * * * //

dimensions      [0 1 -1 0 0 0 0];

internalField   nonuniform List<vector> 
4000
(
(-0.105576 0.70392 0)
(-0.374957 0.695439 0)
(-0.487323 0.731283 0)
(-0.458153 0.767616 0)
(-0.37007 0.77671 0)
(-0.283677 0.765578 0)
(-0.216304 0.744671 0)
(-0.167141 0.720259 0)
(-0.131572 0.695353 0)
(-0.105438 0.671288 0)
(-0.0857805 0.648609 0)
(-0.0706458 0.627494 0)
(-0.0587544 0.60795 0)
(-0.0492521 0.589903 0)
(-0.041551 0.573246 0)
(-0.0352359 0.557868 0)
(-0.0300076 0.543661 0)
(-0.0256449 0.530524 0)
(-0.0219783 0.518361 0)
(-0.018879 0.507087 0)
(-0.0162482 0.496623 0)
(-0.0140037 0.4869 0)
(-0.0120807 0.477859 0)
(-0.0104284 0.469444 0)
(-0.00900488 0.461608 0)
(-0.00777528 0.454308 0)
(-0.00671119 0.447507 0)
(-0.00578876 0.44117 0)
(-0.00498797 0.435267 0)
(-0.00429198 0.429772 0)
(-0.00368649 0.42466 0)
(-0.00315931 0.41991 0)
(-0.0027 0.415502 0)
(-0.00229954 0.411419 0)
(-0.00195012 0.407645 0)
(-0.00164498 0.404167 0)
(-0.0013782 0.400971 0)
(-0.00114456 0.398048 0)
(-0.000939484 0.395387 0)
(-0.000758886 0.392979 0)
(-0.00059919 0.390817 0)
(-0.000457327 0.388893 0)
(-0.000330764 0.387203 0)
(-0.000217401 0.38574 0)
(-0.000114797 0.384502 0)
(-1.86854e-05 0.38349 0)
(7.58193e-05 0.382704 0)
(0.000172295 0.382146 0)
(0.000271829 0.38182 0)
(0.000373444 0.381724 0)
(0.000478123 0.381854 0)
(0.00058854 0.382209 0)
(0.000707127 0.382785 0)
(0.0008367 0.383585 0)
(0.000980296 0.384607 0)
(0.00114109 0.385856 0)
(0.00132249 0.387333 0)
(0.00152817 0.389043 0)
(0.00176223 0.39099 0)
(0.00202918 0.393182 0)
(0.00233411 0.395624 0)
(0.00268275 0.398326 0)
(0.00308159 0.401297 0)
(0.00353803 0.404547 0)
(0.00406051 0.408088 0)
(0.00465876 0.411935 0)
(0.00534394 0.416101 0)
(0.006129 0.420605 0)
(0.00702894 0.425464 0)
(0.00806125 0.430701 0)
(0.00924635 0.436338 0)
(0.0106082 0.442402 0)
(0.0121752 0.448921 0)
(0.0139808 0.455928 0)
(0.0160649 0.463458 0)
(0.0184751 0.471551 0)
(0.0212686 0.48025 0)
(0.0245146 0.489599 0)
(0.0282986 0.499648 0)
(0.0327318 0.510448 0)
(0.0379748 0.522077 0)
(0.0441604 0.534795 0)
(0.0514693 0.548499 0)
(0.060201 0.563269 0)
(0.0707129 0.579206 0)
(0.0834757 0.596405 0)
(0.0991272 0.61494 0)
(0.118555 0.634849 0)
(0.143023 0.65611 0)
(0.174366 0.678558 0)
(0.215308 0.701753 0)
(0.269902 0.724713 0)
(0.343993 0.745373 0)
(0.445003 0.759458 0)
(0.579439 0.758538 0)
(0.741859 0.726018 0)
(0.875961 0.632461 0)
(0.822328 0.465645 0)
(0.436552 0.362866 0)
(0.0139224 0.610184 0)
(-0.142847 1.02046 0)
(-0.361114 1.22585 0)
(-0.516428 1.2952 0)
(-0.544111 1.32879 0)
(-0.51198 1.33598 0)
(-0.462768 1.32342 0)
(-0.410808 1.29769 0)
(-0.361841 1.26436 0)
(-0.318083 1.2273 0)
(-0.280005 1.18896 0)
(-0.247275 1.15081 0)
(-0.219257 1.11368 0)
(-0.195268 1.07805 0)
(-0.174678 1.04415 0)
(-0.156919 1.01207 0)
(-0.141506 0.981812 0)
(-0.128058 0.95333 0)
(-0.116263 0.926547 0)
(-0.105865 0.90138 0)
(-0.0966545 0.877751 0)
(-0.0884573 0.855561 0)
(-0.0811243 0.834723 0)
(-0.0745327 0.81516 0)
(-0.06858 0.796796 0)
(-0.0631801 0.779562 0)
(-0.0582603 0.763395 0)
(-0.0537589 0.748238 0)
(-0.0496231 0.734036 0)
(-0.0458079 0.720741 0)
(-0.0422743 0.708311 0)
(-0.0389889 0.696703 0)
(-0.0359221 0.685884 0)
(-0.0330486 0.675818 0)
(-0.0303457 0.666477 0)
(-0.0277936 0.657835 0)
(-0.0253748 0.649866 0)
(-0.0230736 0.642548 0)
(-0.020876 0.635863 0)
(-0.0187695 0.629794 0)
(-0.0167425 0.624323 0)
(-0.0147848 0.619438 0)
(-0.0128866 0.615127 0)
(-0.0110387 0.611377 0)
(-0.00923056 0.608174 0)
(-0.00744881 0.605505 0)
(-0.00567956 0.603373 0)
(-0.00391013 0.601783 0)
(-0.00212932 0.600739 0)
(-0.000339542 0.600306 0)
(0.00144387 0.600483 0)
(0.00321938 0.601208 0)
(0.00499696 0.602482 0)
(0.00678473 0.604301 0)
(0.00859205 0.606665 0)
(0.0104287 0.609574 0)
(0.0123041 0.613034 0)
(0.0142284 0.61705 0)
(0.0162113 0.621632 0)
(0.0182637 0.626787 0)
(0.0203969 0.632528 0)
(0.0226234 0.638867 0)
(0.0249568 0.645819 0)
(0.0274119 0.653399 0)
(0.0300056 0.661628 0)
(0.0327562 0.670525 0)
(0.0356847 0.680114 0)
(0.0388145 0.690419 0)
(0.0421724 0.70147 0)
(0.0457886 0.713296 0)
(0.049698 0.725933 0)
(0.05394 0.739418 0)
(0.0585602 0.753791 0)
(0.0636108 0.769097 0)
(0.0691523 0.785384 0)
(0.0752542 0.802704 0)
(0.0819963 0.821115 0)
(0.0894697 0.840679 0)
(0.0977779 0.861462 0)
(0.107045 0.883538 0)
(0.117477 0.906982 0)
(0.129728 0.931848 0)
(0.14358 0.958009 0)
(0.15887 0.985705 0)
(0.176403 1.01497 0)
(0.196631 1.04581 0)
(0.220033 1.07814 0)
(0.247195 1.11182 0)
(0.278846 1.14656 0)
(0.315833 1.18184 0)
(0.359043 1.21679 0)
(0.409322 1.24996 0)
(0.467221 1.27906 0)
(0.53246 1.30044 0)
(0.603007 1.30845 0)
(0.67329 1.29462 0)
(0.730759 1.24835 0)
(0.750112 1.16394 0)
(0.669422 1.05455 0)
(0.409226 0.965041 0)
(0.116771 0.865761 0)
(-0.1605 0.736322 0)
(-0.353537 0.899486 0)
(-0.492836 0.941971 0)
(-0.519135 0.953485 0)
(-0.49909 0.954669 0)
(-0.46745 0.950393 0)
(-0.432485 0.941498 0)
(-0.397208 0.928642 0)
(-0.363261 0.912655 0)
(-0.331571 0.894401 0)
(-0.302493 0.874688 0)
(-0.276038 0.854161 0)
(-0.252115 0.833324 0)
(-0.230553 0.812557 0)
(-0.211166 0.792134 0)
(-0.193756 0.772243 0)
(-0.178107 0.753005 0)
(-0.16401 0.734501 0)
(-0.151247 0.716775 0)
(-0.139682 0.699838 0)
(-0.129203 0.683708 0)
(-0.11965 0.668382 0)
(-0.110911 0.653846 0)
(-0.10289 0.640079 0)
(-0.0955018 0.627061 0)
(-0.0886749 0.614768 0)
(-0.0823449 0.603176 0)
(-0.0764556 0.592261 0)
(-0.0709578 0.581998 0)
(-0.0658082 0.572366 0)
(-0.0609685 0.563342 0)
(-0.0564049 0.554906 0)
(-0.0520872 0.54704 0)
(-0.0479884 0.539725 0)
(-0.0440844 0.532944 0)
(-0.0403537 0.526683 0)
(-0.0367768 0.520928 0)
(-0.0333358 0.515665 0)
(-0.0300145 0.510885 0)
(-0.0267979 0.506576 0)
(-0.0236721 0.50273 0)
(-0.0206241 0.499337 0)
(-0.0176411 0.496389 0)
(-0.0147089 0.493865 0)
(-0.0118114 0.491751 0)
(-0.00893264 0.490054 0)
(-0.00605903 0.488786 0)
(-0.00318119 0.487958 0)
(-0.000300525 0.487693 0)
(0.00257386 0.487978 0)
(0.00544254 0.488701 0)
(0.0083156 0.489867 0)
(0.0112027 0.49147 0)
(0.0141147 0.493504 0)
(0.0170636 0.495973 0)
(0.0200614 0.498878 0)
(0.0231206 0.502225 0)
(0.0262543 0.506019 0)
(0.0294762 0.510267 0)
(0.032801 0.514975 0)
(0.0362443 0.520152 0)
(0.039823 0.525809 0)
(0.0435556 0.531955 0)
(0.0474622 0.538602 0)
(0.0515651 0.545763 0)
(0.0558889 0.553453 0)
(0.060461 0.561686 0)
(0.0653121 0.570478 0)
(0.0704764 0.579847 0)
(0.0759921 0.58981 0)
(0.0819032 0.600387 0)
(0.088259 0.611596 0)
(0.0951156 0.623458 0)
(0.102537 0.635991 0)
(0.110598 0.649215 0)
(0.119384 0.663146 0)
(0.128995 0.677801 0)
(0.13955 0.69319 0)
(0.151186 0.709321 0)
(0.163999 0.726191 0)
(0.177682 0.743757 0)
(0.192888 0.761786 0)
(0.210281 0.780389 0)
(0.229618 0.799466 0)
(0.251111 0.818841 0)
(0.275033 0.838267 0)
(0.301658 0.857407 0)
(0.331197 0.875803 0)
(0.363787 0.892829 0)
(0.399466 0.907663 0)
(0.438048 0.919265 0)
(0.478972 0.92637 0)
(0.521074 0.927546 0)
(0.562251 0.921358 0)
(0.599065 0.906657 0)
(0.625898 0.883041 0)
(0.630425 0.85158 0)
(0.567337 0.814339 0)
(0.362152 0.767904 0)
(0.126952 0.661428 0)
(-0.159262 0.635327 0)
(-0.351797 0.792512 0)
(-0.488727 0.832064 0)
(-0.516244 0.839641 0)
(-0.500012 0.837875 0)
(-0.474171 0.833001 0)
(-0.445836 0.826165 0)
(-0.417121 0.817561 0)
(-0.389057 0.807319 0)
(-0.362124 0.795648 0)
(-0.336597 0.782831 0)
(-0.312664 0.769149 0)
(-0.290358 0.754867 0)
(-0.269656 0.740223 0)
(-0.250501 0.72542 0)
(-0.232815 0.710632 0)
(-0.216498 0.696003 0)
(-0.201449 0.681643 0)
(-0.187593 0.667635 0)
(-0.174799 0.654029 0)
(-0.162936 0.640882 0)
(-0.151943 0.628227 0)
(-0.141739 0.616083 0)
(-0.132248 0.604463 0)
(-0.123397 0.59337 0)
(-0.115122 0.582806 0)
(-0.107368 0.572769 0)
(-0.100081 0.563252 0)
(-0.0932155 0.554248 0)
(-0.0867293 0.54575 0)
(-0.0805846 0.537747 0)
(-0.0747473 0.530231 0)
(-0.0691867 0.523191 0)
(-0.0638745 0.516619 0)
(-0.0587852 0.510504 0)
(-0.0538954 0.504839 0)
(-0.0491839 0.499615 0)
(-0.0446312 0.494824 0)
(-0.0402189 0.490458 0)
(-0.0359302 0.486511 0)
(-0.0317493 0.482977 0)
(-0.0276611 0.479849 0)
(-0.0236513 0.477116 0)
(-0.0197035 0.474754 0)
(-0.0157998 0.472745 0)
(-0.0119236 0.4711 0)
(-0.00806013 0.469837 0)
(-0.00419945 0.468985 0)
(-0.00034 0.468706 0)
(0.00351293 0.468976 0)
(0.00736212 0.469644 0)
(0.0112197 0.470719 0)
(0.0150959 0.472189 0)
(0.0190028 0.474047 0)
(0.0229539 0.476294 0)
(0.0269631 0.478932 0)
(0.0310443 0.481964 0)
(0.0352121 0.485394 0)
(0.0394819 0.489226 0)
(0.0438698 0.493465 0)
(0.0483931 0.498115 0)
(0.0530702 0.503183 0)
(0.0579211 0.508674 0)
(0.0629673 0.514595 0)
(0.0682326 0.520953 0)
(0.0737427 0.527754 0)
(0.079526 0.535005 0)
(0.0856132 0.542713 0)
(0.0920386 0.550886 0)
(0.0988399 0.559529 0)
(0.106059 0.568647 0)
(0.113741 0.578243 0)
(0.121939 0.58832 0)
(0.130708 0.598876 0)
(0.140112 0.609905 0)
(0.150219 0.621396 0)
(0.161105 0.633332 0)
(0.172852 0.645684 0)
(0.185542 0.65841 0)
(0.199255 0.67145 0)
(0.214065 0.684748 0)
(0.230136 0.698393 0)
(0.247637 0.712094 0)
(0.266647 0.7257 0)
(0.287244 0.739036 0)
(0.309507 0.751879 0)
(0.333485 0.763951 0)
(0.359174 0.774916 0)
(0.386498 0.784392 0)
(0.415285 0.791959 0)
(0.44523 0.797174 0)
(0.475844 0.79962 0)
(0.506359 0.798978 0)
(0.535568 0.795122 0)
(0.561578 0.788211 0)
(0.581134 0.778659 0)
(0.584417 0.766494 0)
(0.528311 0.748568 0)
(0.339578 0.710482 0)
(0.119451 0.590677 0)
(-0.158777 0.573669 0)
(-0.353422 0.73361 0)
(-0.491514 0.772974 0)
(-0.521525 0.77917 0)
(-0.507998 0.775979 0)
(-0.485151 0.770115 0)
(-0.459983 0.763008 0)
(-0.43442 0.754952 0)
(-0.409315 0.746043 0)
(-0.385074 0.736364 0)
(-0.361876 0.725993 0)
(-0.339804 0.715052 0)
(-0.318901 0.703672 0)
(-0.299171 0.69198 0)
(-0.280597 0.680098 0)
(-0.263147 0.668135 0)
(-0.246774 0.65619 0)
(-0.231426 0.644348 0)
(-0.217045 0.63268 0)
(-0.203563 0.621257 0)
(-0.190915 0.610115 0)
(-0.179041 0.599292 0)
(-0.167882 0.588818 0)
(-0.15738 0.578716 0)
(-0.147482 0.569003 0)
(-0.138137 0.559691 0)
(-0.129299 0.550787 0)
(-0.120922 0.542297 0)
(-0.112966 0.534223 0)
(-0.105394 0.526565 0)
(-0.098172 0.519322 0)
(-0.091267 0.512491 0)
(-0.0846497 0.506069 0)
(-0.0782934 0.500053 0)
(-0.0721732 0.494437 0)
(-0.0662657 0.489218 0)
(-0.0605495 0.484392 0)
(-0.0550045 0.479952 0)
(-0.0496118 0.475896 0)
(-0.0443537 0.472219 0)
(-0.0392133 0.468917 0)
(-0.0341749 0.465985 0)
(-0.0292229 0.463412 0)
(-0.02434 0.461168 0)
(-0.0195078 0.459232 0)
(-0.0147097 0.457625 0)
(-0.0099311 0.456365 0)
(-0.00516178 0.4555 0)
(-0.000397525 0.455227 0)
(0.00435889 0.455507 0)
(0.00911112 0.456157 0)
(0.0138733 0.45719 0)
(0.0186563 0.45859 0)
(0.0234729 0.460346 0)
(0.0283375 0.462457 0)
(0.0332645 0.464926 0)
(0.0382687 0.467754 0)
(0.0433657 0.470943 0)
(0.0485715 0.474496 0)
(0.053903 0.478415 0)
(0.0593779 0.482703 0)
(0.0650153 0.487362 0)
(0.0708354 0.492395 0)
(0.0768595 0.497804 0)
(0.0831111 0.503593 0)
(0.0896149 0.509763 0)
(0.0963978 0.516315 0)
(0.103489 0.523252 0)
(0.11092 0.530571 0)
(0.118726 0.538273 0)
(0.126942 0.546353 0)
(0.135609 0.554806 0)
(0.144771 0.563624 0)
(0.154473 0.572794 0)
(0.164764 0.582301 0)
(0.175699 0.592125 0)
(0.187331 0.602236 0)
(0.199719 0.612601 0)
(0.212921 0.623175 0)
(0.226998 0.633906 0)
(0.242012 0.644736 0)
(0.258029 0.655596 0)
(0.275109 0.666377 0)
(0.293299 0.676954 0)
(0.312632 0.687192 0)
(0.333114 0.696941 0)
(0.354731 0.706031 0)
(0.37743 0.714282 0)
(0.40112 0.721511 0)
(0.425658 0.727542 0)
(0.450835 0.732226 0)
(0.476354 0.735462 0)
(0.501754 0.737223 0)
(0.526258 0.737576 0)
(0.548517 0.736672 0)
(0.56592 0.734589 0)
(0.569143 0.73044 0)
(0.515665 0.718938 0)
(0.332459 0.680182 0)
(0.116149 0.542144 0)
(-0.159794 0.51161 0)
(-0.357217 0.671031 0)
(-0.496786 0.710749 0)
(-0.528691 0.717232 0)
(-0.517186 0.714509 0)
(-0.496405 0.709295 0)
(-0.473322 0.703065 0)
(-0.449781 0.696143 0)
(-0.426577 0.688625 0)
(-0.404064 0.680572 0)
(-0.382386 0.672046 0)
(-0.3616 0.663115 0)
(-0.341733 0.653854 0)
(-0.322789 0.64434 0)
(-0.304762 0.634649 0)
(-0.287633 0.624855 0)
(-0.271379 0.615025 0)
(-0.255965 0.605222 0)
(-0.241356 0.595502 0)
(-0.227511 0.585913 0)
(-0.214387 0.576499 0)
(-0.201942 0.567293 0)
(-0.190132 0.558326 0)
(-0.178915 0.549623 0)
(-0.168251 0.541206 0)
(-0.1581 0.53309 0)
(-0.148423 0.525288 0)
(-0.139186 0.517811 0)
(-0.130353 0.510666 0)
(-0.121893 0.503859 0)
(-0.113776 0.497394 0)
(-0.105973 0.491273 0)
(-0.0984567 0.485498 0)
(-0.0912034 0.480068 0)
(-0.084189 0.474985 0)
(-0.0773915 0.470246 0)
(-0.0707902 0.46585 0)
(-0.0643654 0.461796 0)
(-0.0580987 0.458082 0)
(-0.0519724 0.454706 0)
(-0.0459697 0.451666 0)
(-0.0400746 0.448957 0)
(-0.0342716 0.446569 0)
(-0.0285428 0.444465 0)
(-0.02287 0.442627 0)
(-0.0172377 0.441078 0)
(-0.0116314 0.439843 0)
(-0.00604096 0.438984 0)
(-0.000459102 0.438726 0)
(0.00511402 0.439015 0)
(0.0106828 0.439645 0)
(0.0162634 0.440629 0)
(0.0218669 0.44195 0)
(0.0275061 0.443593 0)
(0.0331958 0.445557 0)
(0.0389505 0.447843 0)
(0.0447852 0.450453 0)
(0.0507154 0.453385 0)
(0.0567571 0.456643 0)
(0.062927 0.460225 0)
(0.0692427 0.464133 0)
(0.0757226 0.468367 0)
(0.0823861 0.472926 0)
(0.0892538 0.477812 0)
(0.0963476 0.483022 0)
(0.103691 0.488555 0)
(0.111308 0.494409 0)
(0.119225 0.50058 0)
(0.127469 0.507064 0)
(0.136072 0.513853 0)
(0.145063 0.52094 0)
(0.154476 0.528315 0)
(0.164346 0.535963 0)
(0.174708 0.543869 0)
(0.185602 0.552013 0)
(0.197067 0.560369 0)
(0.209142 0.568909 0)
(0.221869 0.577597 0)
(0.235287 0.586392 0)
(0.249435 0.595248 0)
(0.26435 0.604109 0)
(0.280066 0.612912 0)
(0.296611 0.621583 0)
(0.314002 0.63004 0)
(0.332246 0.638194 0)
(0.351336 0.64595 0)
(0.371248 0.653212 0)
(0.391936 0.659885 0)
(0.413335 0.66588 0)
(0.435351 0.671124 0)
(0.457859 0.675564 0)
(0.48068 0.67918 0)
(0.503511 0.681989 0)
(0.525768 0.684049 0)
(0.546324 0.685423 0)
(0.562828 0.685988 0)
(0.566012 0.684445 0)
(0.513819 0.674497 0)
(0.332631 0.633378 0)
(0.116 0.485277 0)
(-0.160977 0.455475 0)
(-0.361043 0.610752 0)
(-0.502131 0.650184 0)
(-0.535472 0.657087 0)
(-0.525535 0.655121 0)
(-0.50627 0.650818 0)
(-0.484717 0.645638 0)
(-0.462657 0.639903 0)
(-0.440848 0.633702 0)
(-0.419611 0.627086 0)
(-0.39907 0.6201 0)
(-0.379267 0.612793 0)
(-0.360218 0.605217 0)
(-0.341929 0.597425 0)
(-0.324394 0.589469 0)
(-0.307601 0.581403 0)
(-0.291535 0.573276 0)
(-0.276174 0.565134 0)
(-0.261493 0.557021 0)
(-0.247466 0.548977 0)
(-0.234062 0.541036 0)
(-0.22125 0.533231 0)
(-0.208999 0.525588 0)
(-0.197278 0.518132 0)
(-0.186055 0.510884 0)
(-0.175299 0.503861 0)
(-0.16498 0.497079 0)
(-0.155069 0.490551 0)
(-0.145538 0.484286 0)
(-0.136359 0.478293 0)
(-0.127506 0.47258 0)
(-0.118955 0.467151 0)
(-0.110683 0.462011 0)
(-0.102666 0.457163 0)
(-0.0948842 0.45261 0)
(-0.0873162 0.448353 0)
(-0.079943 0.444393 0)
(-0.0727463 0.44073 0)
(-0.0657084 0.437366 0)
(-0.0588123 0.434299 0)
(-0.0520417 0.431528 0)
(-0.0453812 0.429051 0)
(-0.0388158 0.426856 0)
(-0.0323275 0.424903 0)
(-0.025899 0.423173 0)
(-0.0195162 0.421696 0)
(-0.0131655 0.420499 0)
(-0.00683682 0.419658 0)
(-0.000519786 0.419419 0)
(0.00578774 0.419713 0)
(0.0120907 0.420318 0)
(0.0184069 0.421248 0)
(0.0247472 0.422482 0)
(0.0311241 0.424006 0)
(0.0375522 0.425816 0)
(0.044046 0.427913 0)
(0.0506199 0.430296 0)
(0.0572889 0.432966 0)
(0.0640686 0.435922 0)
(0.070975 0.439163 0)
(0.0780247 0.442689 0)
(0.0852351 0.446497 0)
(0.0926244 0.450586 0)
(0.100212 0.454953 0)
(0.108017 0.459596 0)
(0.11606 0.464509 0)
(0.124365 0.469689 0)
(0.132952 0.475128 0)
(0.141847 0.48082 0)
(0.151075 0.486756 0)
(0.160661 0.492924 0)
(0.170632 0.499311 0)
(0.181017 0.505904 0)
(0.191844 0.512683 0)
(0.203142 0.519628 0)
(0.21494 0.526716 0)
(0.227268 0.533918 0)
(0.240153 0.541203 0)
(0.253624 0.548536 0)
(0.267705 0.555878 0)
(0.28242 0.563184 0)
(0.297787 0.570406 0)
(0.31382 0.577491 0)
(0.330529 0.584384 0)
(0.347912 0.591026 0)
(0.365961 0.597359 0)
(0.384658 0.603326 0)
(0.403974 0.608873 0)
(0.423868 0.613955 0)
(0.444286 0.618535 0)
(0.465157 0.622595 0)
(0.48637 0.62613 0)
(0.507709 0.62916 0)
(0.528687 0.631716 0)
(0.548295 0.633802 0)
(0.564298 0.63518 0)
(0.567303 0.634344 0)
(0.515721 0.624699 0)
(0.334914 0.582154 0)
(0.116693 0.431389 0)
(-0.162024 0.405741 0)
(-0.364321 0.554295 0)
(-0.506839 0.592708 0)
(-0.541366 0.599868 0)
(-0.532712 0.598609 0)
(-0.514624 0.595148 0)
(-0.494246 0.590908 0)
(-0.473323 0.586203 0)
(-0.452587 0.581118 0)
(-0.432342 0.575695 0)
(-0.412694 0.569969 0)
(-0.393678 0.563976 0)
(-0.375302 0.557755 0)
(-0.357567 0.551345 0)
(-0.34047 0.544785 0)
(-0.324001 0.538114 0)
(-0.308149 0.53137 0)
(-0.292898 0.524589 0)
(-0.27823 0.517805 0)
(-0.264125 0.511051 0)
(-0.250562 0.504356 0)
(-0.237517 0.497746 0)
(-0.224968 0.491246 0)
(-0.212889 0.484879 0)
(-0.201257 0.478663 0)
(-0.190046 0.472616 0)
(-0.179233 0.466753 0)
(-0.168794 0.461087 0)
(-0.158706 0.45563 0)
(-0.148945 0.450391 0)
(-0.139491 0.44538 0)
(-0.130321 0.440602 0)
(-0.121415 0.436065 0)
(-0.112753 0.431773 0)
(-0.104316 0.427729 0)
(-0.0960867 0.423938 0)
(-0.0880463 0.420403 0)
(-0.0801781 0.417124 0)
(-0.0724659 0.414103 0)
(-0.0648937 0.411342 0)
(-0.0574461 0.40884 0)
(-0.0501085 0.406595 0)
(-0.0428667 0.404595 0)
(-0.0357033 0.402796 0)
(-0.0286022 0.401181 0)
(-0.0215512 0.399786 0)
(-0.0145376 0.398638 0)
(-0.00755171 0.397827 0)
(-0.000579964 0.397611 0)
(0.00638164 0.397906 0)
(0.0133383 0.398482 0)
(0.0203093 0.399353 0)
(0.0273048 0.400497 0)
(0.0343369 0.401897 0)
(0.0414197 0.403551 0)
(0.0485671 0.405458 0)
(0.0557927 0.407617 0)
(0.0631109 0.410027 0)
(0.0705363 0.412688 0)
(0.0780839 0.415596 0)
(0.0857691 0.41875 0)
(0.0936081 0.422147 0)
(0.101617 0.425785 0)
(0.109814 0.429659 0)
(0.118216 0.433764 0)
(0.126842 0.438095 0)
(0.135711 0.442647 0)
(0.144843 0.44741 0)
(0.154258 0.452377 0)
(0.163977 0.457537 0)
(0.174021 0.462879 0)
(0.184414 0.468389 0)
(0.195176 0.474053 0)
(0.206331 0.479852 0)
(0.217902 0.485769 0)
(0.229909 0.491781 0)
(0.242376 0.497863 0)
(0.255322 0.50399 0)
(0.268768 0.510132 0)
(0.282731 0.516257 0)
(0.297227 0.522332 0)
(0.312269 0.52832 0)
(0.327865 0.534183 0)
(0.344021 0.539883 0)
(0.360738 0.54538 0)
(0.378011 0.550637 0)
(0.39583 0.555617 0)
(0.414181 0.560288 0)
(0.433042 0.564623 0)
(0.452387 0.568603 0)
(0.472178 0.572218 0)
(0.492348 0.575467 0)
(0.512724 0.57836 0)
(0.532873 0.580907 0)
(0.551845 0.583074 0)
(0.567449 0.584561 0)
(0.570161 0.583795 0)
(0.518657 0.574075 0)
(0.337516 0.531378 0)
(0.117542 0.382967 0)
(-0.162899 0.361204 0)
(-0.367009 0.501267 0)
(-0.510796 0.538049 0)
(-0.546318 0.545266 0)
(-0.538744 0.544599 0)
(-0.521612 0.541865 0)
(-0.502172 0.538427 0)
(-0.482152 0.534588 0)
(-0.462268 0.530429 0)
(-0.442812 0.525986 0)
(-0.423882 0.521289 0)
(-0.405506 0.516365 0)
(-0.387687 0.511244 0)
(-0.370424 0.505957 0)
(-0.353712 0.500533 0)
(-0.337542 0.495002 0)
(-0.321904 0.489394 0)
(-0.306786 0.483738 0)
(-0.292175 0.478062 0)
(-0.278054 0.47239 0)
(-0.264407 0.466748 0)
(-0.251217 0.461159 0)
(-0.238465 0.455642 0)
(-0.226131 0.450219 0)
(-0.214196 0.444907 0)
(-0.202642 0.43972 0)
(-0.191447 0.434675 0)
(-0.180593 0.429783 0)
(-0.17006 0.425057 0)
(-0.159829 0.420505 0)
(-0.149881 0.416138 0)
(-0.140199 0.411962 0)
(-0.130764 0.407986 0)
(-0.12156 0.404213 0)
(-0.112568 0.40065 0)
(-0.103774 0.397301 0)
(-0.0951601 0.394169 0)
(-0.0867122 0.391257 0)
(-0.0784149 0.388567 0)
(-0.0702535 0.386102 0)
(-0.0622139 0.383861 0)
(-0.0542824 0.381844 0)
(-0.046446 0.380037 0)
(-0.0386878 0.378394 0)
(-0.0309937 0.376898 0)
(-0.0233532 0.375593 0)
(-0.015755 0.374504 0)
(-0.00818932 0.373734 0)
(-0.000639748 0.373543 0)
(0.0068992 0.373835 0)
(0.0144328 0.374378 0)
(0.0219815 0.375187 0)
(0.0295548 0.376239 0)
(0.0371638 0.377516 0)
(0.0448221 0.379016 0)
(0.0525427 0.380737 0)
(0.0603386 0.382678 0)
(0.0682229 0.384837 0)
(0.0762092 0.387213 0)
(0.0843114 0.389803 0)
(0.0925437 0.392604 0)
(0.100921 0.395614 0)
(0.109457 0.398827 0)
(0.118169 0.40224 0)
(0.127071 0.405847 0)
(0.136181 0.409642 0)
(0.145514 0.413619 0)
(0.155088 0.417768 0)
(0.16492 0.422081 0)
(0.175028 0.426548 0)
(0.18543 0.431158 0)
(0.196143 0.435898 0)
(0.207187 0.440753 0)
(0.218579 0.445708 0)
(0.230337 0.450746 0)
(0.242478 0.455848 0)
(0.25502 0.460993 0)
(0.267979 0.46616 0)
(0.28137 0.471324 0)
(0.295206 0.476461 0)
(0.3095 0.481545 0)
(0.324262 0.486547 0)
(0.3395 0.491441 0)
(0.355219 0.496197 0)
(0.371424 0.50079 0)
(0.388114 0.505192 0)
(0.405287 0.509379 0)
(0.422939 0.513329 0)
(0.441065 0.517025 0)
(0.459654 0.520454 0)
(0.478691 0.523606 0)
(0.498131 0.52648 0)
(0.517827 0.529076 0)
(0.537369 0.531387 0)
(0.555836 0.533356 0)
(0.571048 0.534654 0)
(0.573415 0.533703 0)
(0.521656 0.524012 0)
(0.339922 0.482196 0)
(0.118358 0.339505 0)
(-0.163631 0.320704 0)
(-0.369198 0.451038 0)
(-0.514066 0.485709 0)
(-0.550434 0.492806 0)
(-0.543761 0.492603 0)
(-0.527421 0.490479 0)
(-0.508749 0.487717 0)
(-0.489465 0.484603 0)
(-0.470272 0.481214 0)
(-0.451457 0.477582 0)
(-0.433114 0.473731 0)
(-0.415264 0.469686 0)
(-0.397909 0.465468 0)
(-0.381045 0.461103 0)
(-0.364666 0.456615 0)
(-0.348763 0.452027 0)
(-0.333327 0.447362 0)
(-0.318347 0.442644 0)
(-0.303813 0.437896 0)
(-0.28971 0.433137 0)
(-0.276026 0.42839 0)
(-0.262747 0.423672 0)
(-0.249856 0.419003 0)
(-0.237339 0.414398 0)
(-0.22518 0.409874 0)
(-0.213363 0.405444 0)
(-0.201871 0.401122 0)
(-0.190689 0.39692 0)
(-0.1798 0.392848 0)
(-0.169188 0.388917 0)
(-0.158837 0.385135 0)
(-0.148731 0.381509 0)
(-0.138856 0.378048 0)
(-0.129196 0.374756 0)
(-0.119735 0.371639 0)
(-0.110461 0.368703 0)
(-0.101358 0.36595 0)
(-0.092412 0.363384 0)
(-0.0836104 0.361009 0)
(-0.0749394 0.358825 0)
(-0.066386 0.356836 0)
(-0.0579376 0.355038 0)
(-0.0495826 0.353419 0)
(-0.0413049 0.35193 0)
(-0.0330922 0.350558 0)
(-0.0249362 0.349349 0)
(-0.0168267 0.348328 0)
(-0.00875409 0.347607 0)
(-0.00069881 0.347442 0)
(0.00734553 0.347728 0)
(0.015384 0.348235 0)
(0.0234383 0.34898 0)
(0.031517 0.349939 0)
(0.03963 0.351095 0)
(0.0477904 0.352445 0)
(0.0560102 0.353986 0)
(0.0643014 0.355717 0)
(0.0726762 0.357637 0)
(0.0811469 0.359743 0)
(0.0897264 0.362033 0)
(0.0984273 0.364504 0)
(0.107263 0.367152 0)
(0.116247 0.369972 0)
(0.125393 0.37296 0)
(0.134714 0.37611 0)
(0.144226 0.379416 0)
(0.153942 0.382872 0)
(0.163878 0.386468 0)
(0.174047 0.390197 0)
(0.184466 0.39405 0)
(0.195149 0.398014 0)
(0.206112 0.402079 0)
(0.21737 0.406232 0)
(0.228937 0.41046 0)
(0.240829 0.414746 0)
(0.253059 0.419076 0)
(0.265643 0.423432 0)
(0.278593 0.427795 0)
(0.291921 0.432148 0)
(0.30564 0.436469 0)
(0.319761 0.440738 0)
(0.334292 0.444935 0)
(0.349243 0.449037 0)
(0.36462 0.453025 0)
(0.38043 0.456878 0)
(0.396678 0.460576 0)
(0.413367 0.464101 0)
(0.430501 0.467438 0)
(0.448084 0.470572 0)
(0.466117 0.473491 0)
(0.484597 0.476188 0)
(0.50349 0.478656 0)
(0.522664 0.480887 0)
(0.541718 0.482866 0)
(0.559745 0.484523 0)
(0.57457 0.485524 0)
(0.576549 0.484346 0)
(0.524425 0.47483 0)
(0.342023 0.434729 0)
(0.1191 0.300085 0)
(-0.164245 0.283331 0)
(-0.370989 0.403041 0)
(-0.516755 0.435231 0)
(-0.553853 0.442067 0)
(-0.547918 0.442206 0)
(-0.532237 0.440586 0)
(-0.514202 0.438389 0)
(-0.495525 0.435883 0)
(-0.476901 0.433136 0)
(-0.458614 0.430179 0)
(-0.440754 0.427032 0)
(-0.423341 0.423715 0)
(-0.406373 0.420248 0)
(-0.389847 0.41665 0)
(-0.373753 0.41294 0)
(-0.358085 0.409138 0)
(-0.342831 0.405263 0)
(-0.327984 0.401334 0)
(-0.313532 0.397369 0)
(-0.299465 0.393386 0)
(-0.285771 0.389402 0)
(-0.272438 0.385433 0)
(-0.259453 0.381493 0)
(-0.246803 0.377599 0)
(-0.234476 0.373763 0)
(-0.222456 0.369998 0)
(-0.210732 0.366315 0)
(-0.199289 0.362725 0)
(-0.188114 0.359238 0)
(-0.177192 0.355864 0)
(-0.166511 0.35261 0)
(-0.156056 0.349484 0)
(-0.145814 0.346492 0)
(-0.135772 0.343641 0)
(-0.125917 0.340936 0)
(-0.116236 0.338382 0)
(-0.106717 0.335982 0)
(-0.0973464 0.33374 0)
(-0.0881127 0.33166 0)
(-0.0790038 0.329743 0)
(-0.0700076 0.327992 0)
(-0.0611128 0.326404 0)
(-0.0523091 0.324967 0)
(-0.0435813 0.323629 0)
(-0.034919 0.322382 0)
(-0.026316 0.321275 0)
(-0.0177634 0.32033 0)
(-0.00925117 0.319666 0)
(-0.00075696 0.319527 0)
(0.00772617 0.319802 0)
(0.0162031 0.320272 0)
(0.0246964 0.320951 0)
(0.0332136 0.321818 0)
(0.0417636 0.322855 0)
(0.0503588 0.324059 0)
(0.0590103 0.325427 0)
(0.0677291 0.326959 0)
(0.0765262 0.328653 0)
(0.0854131 0.330506 0)
(0.0944012 0.332516 0)
(0.103502 0.334679 0)
(0.112728 0.336991 0)
(0.12209 0.339449 0)
(0.131602 0.342048 0)
(0.141275 0.344782 0)
(0.151122 0.347645 0)
(0.161155 0.35063 0)
(0.171388 0.353731 0)
(0.181833 0.35694 0)
(0.192504 0.360247 0)
(0.203412 0.363643 0)
(0.214573 0.367117 0)
(0.225997 0.370659 0)
(0.237699 0.374257 0)
(0.24969 0.377897 0)
(0.261984 0.381566 0)
(0.274592 0.38525 0)
(0.287526 0.388935 0)
(0.300797 0.392604 0)
(0.314417 0.396241 0)
(0.328395 0.399829 0)
(0.342741 0.403354 0)
(0.357464 0.406797 0)
(0.372574 0.410142 0)
(0.388079 0.413374 0)
(0.403986 0.416477 0)
(0.420305 0.419436 0)
(0.437045 0.422238 0)
(0.454214 0.424871 0)
(0.471821 0.427324 0)
(0.489868 0.429587 0)
(0.50833 0.43165 0)
(0.527078 0.433503 0)
(0.545718 0.435123 0)
(0.563351 0.436437 0)
(0.577805 0.437122 0)
(0.579399 0.435743 0)
(0.52688 0.426568 0)
(0.343824 0.388832 0)
(0.11976 0.263892 0)
(-0.164766 0.248388 0)
(-0.372462 0.356811 0)
(-0.518965 0.386243 0)
(-0.556699 0.392684 0)
(-0.551359 0.393069 0)
(-0.536229 0.391861 0)
(-0.518724 0.390137 0)
(-0.50055 0.38814 0)
(-0.482398 0.385933 0)
(-0.464548 0.383541 0)
(-0.447089 0.380984 0)
(-0.430039 0.378278 0)
(-0.413396 0.375439 0)
(-0.397153 0.372484 0)
(-0.381303 0.369428 0)
(-0.365836 0.366289 0)
(-0.350744 0.363082 0)
(-0.336017 0.359822 0)
(-0.321646 0.356524 0)
(-0.307621 0.353203 0)
(-0.293932 0.349874 0)
(-0.280567 0.34655 0)
(-0.267517 0.343244 0)
(-0.25477 0.339968 0)
(-0.242314 0.336734 0)
(-0.230138 0.333552 0)
(-0.21823 0.330434 0)
(-0.206579 0.327388 0)
(-0.195172 0.324423 0)
(-0.183998 0.321548 0)
(-0.173046 0.318771 0)
(-0.162302 0.316096 0)
(-0.151756 0.313533 0)
(-0.141396 0.311084 0)
(-0.13121 0.308757 0)
(-0.121187 0.306555 0)
(-0.111315 0.304482 0)
(-0.101584 0.302541 0)
(-0.0919832 0.300737 0)
(-0.0825005 0.299071 0)
(-0.0731256 0.297544 0)
(-0.0638483 0.296156 0)
(-0.0546596 0.294893 0)
(-0.045545 0.293704 0)
(-0.0364964 0.292584 0)
(-0.0275093 0.291584 0)
(-0.0185759 0.290722 0)
(-0.00968586 0.290119 0)
(-0.000813937 0.290006 0)
(0.00804691 0.290267 0)
(0.0169013 0.290696 0)
(0.0257726 0.291309 0)
(0.0346673 0.292084 0)
(0.0435933 0.293005 0)
(0.0525623 0.294068 0)
(0.0615844 0.295272 0)
(0.0706698 0.296615 0)
(0.0798285 0.298096 0)
(0.0890709 0.299711 0)
(0.0984073 0.30146 0)
(0.107848 0.303337 0)
(0.117405 0.305341 0)
(0.127087 0.307466 0)
(0.136907 0.309708 0)
(0.146874 0.312063 0)
(0.157001 0.314525 0)
(0.167298 0.317087 0)
(0.177777 0.319744 0)
(0.188449 0.322487 0)
(0.199326 0.32531 0)
(0.210418 0.328203 0)
(0.221738 0.331158 0)
(0.233297 0.334165 0)
(0.245105 0.337214 0)
(0.257175 0.340294 0)
(0.269517 0.343393 0)
(0.282143 0.346501 0)
(0.295062 0.349603 0)
(0.308286 0.352689 0)
(0.321825 0.355743 0)
(0.33569 0.358754 0)
(0.34989 0.361707 0)
(0.364435 0.364589 0)
(0.379336 0.367388 0)
(0.394603 0.370088 0)
(0.410247 0.372678 0)
(0.426279 0.375145 0)
(0.44271 0.377478 0)
(0.459554 0.379664 0)
(0.476823 0.381692 0)
(0.494523 0.383552 0)
(0.512631 0.385233 0)
(0.531021 0.38672 0)
(0.549303 0.387991 0)
(0.566582 0.388972 0)
(0.580691 0.389357 0)
(0.58193 0.387816 0)
(0.52901 0.37917 0)
(0.345364 0.344292 0)
(0.120345 0.230262 0)
(-0.165211 0.215345 0)
(-0.373679 0.311976 0)
(-0.520796 0.338429 0)
(-0.559058 0.344372 0)
(-0.554209 0.34492 0)
(-0.539536 0.344049 0)
(-0.522471 0.34272 0)
(-0.504716 0.341151 0)
(-0.486955 0.339398 0)
(-0.469469 0.337484 0)
(-0.452343 0.335425 0)
(-0.435594 0.333234 0)
(-0.419221 0.330926 0)
(-0.403216 0.328516 0)
(-0.387571 0.326016 0)
(-0.372275 0.32344 0)
(-0.357322 0.320802 0)
(-0.342701 0.318114 0)
(-0.328404 0.315389 0)
(-0.314422 0.312639 0)
(-0.300744 0.309876 0)
(-0.287362 0.307112 0)
(-0.274265 0.304357 0)
(-0.261445 0.301622 0)
(-0.24889 0.298917 0)
(-0.236591 0.296251 0)
(-0.224537 0.293633 0)
(-0.212719 0.291071 0)
(-0.201125 0.288574 0)
(-0.189746 0.286148 0)
(-0.178571 0.283799 0)
(-0.167589 0.281534 0)
(-0.156791 0.279359 0)
(-0.146166 0.277279 0)
(-0.135703 0.275298 0)
(-0.125394 0.27342 0)
(-0.115227 0.271649 0)
(-0.105192 0.269989 0)
(-0.0952804 0.268442 0)
(-0.0854815 0.26701 0)
(-0.0757856 0.265696 0)
(-0.0661835 0.264497 0)
(-0.0566675 0.2634 0)
(-0.0472238 0.262357 0)
(-0.0378464 0.261366 0)
(-0.0285324 0.260476 0)
(-0.019275 0.259702 0)
(-0.0100634 0.259166 0)
(-0.000869495 0.259076 0)
(0.00831343 0.259319 0)
(0.0174897 0.259706 0)
(0.0266835 0.260251 0)
(0.0359004 0.260935 0)
(0.0451469 0.261742 0)
(0.0544344 0.26267 0)
(0.0637723 0.263717 0)
(0.0731695 0.264881 0)
(0.0826354 0.266161 0)
(0.0921795 0.267554 0)
(0.101811 0.269059 0)
(0.11154 0.270672 0)
(0.121375 0.272389 0)
(0.131327 0.274209 0)
(0.141406 0.276125 0)
(0.15162 0.278134 0)
(0.161982 0.280231 0)
(0.172499 0.28241 0)
(0.183183 0.284666 0)
(0.194043 0.286993 0)
(0.205091 0.289383 0)
(0.216335 0.291829 0)
(0.227787 0.294324 0)
(0.239456 0.296859 0)
(0.251353 0.299426 0)
(0.263487 0.302016 0)
(0.27587 0.304618 0)
(0.288512 0.307223 0)
(0.301422 0.309822 0)
(0.31461 0.312402 0)
(0.328088 0.314954 0)