/*--------------------------------*- C++ -*----------------------------------*\
  =========                 |
  \\      /  F ield         | OpenFOAM: The Open Source CFD Toolbox
   \\    /   O peration     | Website:  https://openfoam.org
    \\  /    A nd           | Version:  10
     \\/     M anipulation  |
\*---------------------------------------------------------------------------*/
FoamFile
{
    format      ascii;
    class       volScalarField;
    location    "10";
    object      nut;
}
// * * * * * * * * * * * * * * * * * * * * * * * * * * * * * * * * * * * * * //

dimensions      [0 2 -1 0 0 0 0];

internalField   nonuniform List<scalar> 
38016
(
1.81599e-06
1.81599e-06
1.81599e-06
1.81599e-06
1.81599e-06
1.81599e-06
1.81599e-06
1.81599e-06
1.81599e-06
1.816e-06
1.816e-06
1.816e-06
1.816e-06
1.816e-06
1.816e-06
1.816e-06
1.816e-06
1.816e-06
1.81601e-06
1.81602e-06
1.81603e-06
1.81606e-06
1.81612e-06
1.81618e-06
1.81637e-06
1.81672e-06
1.81748e-06
1.81841e-06
1.81963e-06
1.8211e-06
1.82278e-06
1.82465e-06
1.82674e-06
1.82901e-06
1.83145e-06
1.83405e-06
1.83676e-06
1.83953e-06
1.8423e-06
1.84503e-06
1.84764e-06
1.85014e-06
1.85242e-06
1.85444e-06
1.85609e-06
1.85723e-06
1.85704e-06
1.85808e-06
1.816e-06
1.816e-06
1.81599e-06
1.81599e-06
1.81599e-06
1.816e-06
1.816e-06
1.816e-06
1.816e-06
1.816e-06
1.816e-06
1.816e-06
1.816e-06
1.816e-06
1.81599e-06
1.81599e-06
1.81599e-06
1.816e-06
1.81601e-06
1.81603e-06
1.81607e-06
1.81612e-06
1.81626e-06
1.81646e-06
1.81688e-06
1.81736e-06
1.81815e-06
1.81901e-06
1.82013e-06
1.82144e-06
1.82288e-06
1.82452e-06
1.82635e-06
1.82832e-06
1.83038e-06
1.83256e-06
1.83481e-06
1.8371e-06
1.83936e-06
1.84155e-06
1.84361e-06
1.84552e-06
1.84723e-06
1.84868e-06
1.8498e-06
1.85047e-06
1.84983e-06
1.84797e-06
1.81599e-06
1.81599e-06
1.81599e-06
1.81599e-06
1.81599e-06
1.81599e-06
1.81599e-06
1.81599e-06
1.81599e-06
1.816e-06
1.816e-06
1.816e-06
1.816e-06
1.816e-06
1.81599e-06
1.81599e-06
1.816e-06
1.816e-06
1.81601e-06
1.81603e-06
1.81605e-06
1.81609e-06
1.81619e-06
1.8163e-06
1.81668e-06
1.81717e-06
1.81806e-06
1.81906e-06
1.82033e-06
1.82184e-06
1.82351e-06
1.82536e-06
1.82739e-06
1.82959e-06
1.83192e-06
1.83438e-06
1.83693e-06
1.83953e-06
1.84209e-06
1.84459e-06
1.84701e-06
1.84921e-06
1.85127e-06
1.85308e-06
1.85458e-06
1.85568e-06
1.85589e-06
1.85471e-06
1.816e-06
1.816e-06
1.81599e-06
1.81599e-06
1.81599e-06
1.816e-06
1.816e-06
1.816e-06
1.816e-06
1.816e-06
1.816e-06
1.816e-06
1.816e-06
1.816e-06
1.81599e-06
1.81599e-06
1.81599e-06
1.816e-06
1.81601e-06
1.81602e-06
1.81605e-06
1.8161e-06
1.81619e-06
1.81632e-06
1.81659e-06
1.81709e-06
1.81788e-06
1.8189e-06
1.82022e-06
1.82181e-06
1.8236e-06
1.82565e-06
1.82794e-06
1.83044e-06
1.83308e-06
1.83587e-06
1.83877e-06
1.84166e-06
1.84452e-06
1.84725e-06
1.8498e-06
1.85222e-06
1.85434e-06
1.85621e-06
1.85776e-06
1.8589e-06
1.85946e-06
1.86079e-06
1.81599e-06
1.81599e-06
1.81599e-06
1.81599e-06
1.81599e-06
1.81599e-06
1.81599e-06
1.81599e-06
1.81599e-06
1.816e-06
1.816e-06
1.816e-06
1.816e-06
1.816e-06
1.81599e-06
1.81599e-06
1.816e-06
1.81601e-06
1.81602e-06
1.81604e-06
1.81608e-06
1.81614e-06
1.81629e-06
1.8165e-06
1.81698e-06
1.8176e-06
1.8186e-06
1.81974e-06
1.82117e-06
1.82287e-06
1.82474e-06
1.82683e-06
1.82912e-06
1.83159e-06
1.83416e-06
1.83685e-06
1.83959e-06
1.84234e-06
1.84498e-06
1.8475e-06
1.84983e-06
1.85187e-06
1.85369e-06
1.85523e-06
1.8564e-06
1.85707e-06
1.85666e-06
1.85388e-06
1.816e-06
1.816e-06
1.81599e-06
1.81599e-06
1.81599e-06
1.816e-06
1.816e-06
1.816e-06
1.816e-06
1.816e-06
1.816e-06
1.816e-06
1.816e-06
1.816e-06
1.81599e-06
1.81599e-06
1.816e-06
1.816e-06
1.81601e-06
1.81603e-06
1.81606e-06
1.81611e-06
1.81622e-06
1.81636e-06
1.81669e-06
1.8173e-06
1.81825e-06
1.81947e-06
1.82102e-06
1.82286e-06
1.82492e-06
1.82724e-06
1.82979e-06
1.83253e-06
1.83538e-06
1.83836e-06
1.84135e-06
1.84427e-06
1.84706e-06
1.84964e-06
1.85196e-06
1.85406e-06
1.85585e-06
1.85739e-06
1.85863e-06
1.85956e-06
1.86054e-06
1.86214e-06
1.81599e-06
1.81599e-06
1.81599e-06
1.81599e-06
1.81599e-06
1.81599e-06
1.81599e-06
1.81599e-06
1.81599e-06
1.816e-06
1.816e-06
1.816e-06
1.816e-06
1.816e-06
1.81599e-06
1.816e-06
1.816e-06
1.81601e-06
1.81602e-06
1.81605e-06
1.81609e-06
1.81616e-06
1.8163e-06
1.81653e-06
1.81699e-06
1.81766e-06
1.8187e-06
1.81996e-06
1.82155e-06
1.82342e-06
1.82549e-06
1.82782e-06
1.83035e-06
1.83307e-06
1.83584e-06
1.83871e-06
1.84155e-06
1.84431e-06
1.8469e-06
1.84924e-06
1.85132e-06
1.85306e-06
1.85456e-06
1.85577e-06
1.85661e-06
1.8571e-06
1.85697e-06
1.85577e-06
1.816e-06
1.816e-06
1.81599e-06
1.81599e-06
1.816e-06
1.816e-06
1.816e-06
1.816e-06
1.816e-06
1.816e-06
1.816e-06
1.816e-06
1.816e-06
1.816e-06
1.81599e-06
1.81599e-06
1.816e-06
1.81601e-06
1.81602e-06
1.81604e-06
1.81608e-06
1.81615e-06
1.81628e-06
1.81648e-06
1.81691e-06
1.81763e-06
1.81872e-06
1.82009e-06
1.82184e-06
1.82386e-06
1.82612e-06
1.82862e-06
1.83131e-06
1.83419e-06
1.8371e-06
1.84006e-06
1.84294e-06
1.84566e-06
1.84814e-06
1.85033e-06
1.85219e-06
1.85378e-06
1.85509e-06
1.8561e-06
1.85691e-06
1.85748e-06
1.85843e-06
1.8597e-06
1.81599e-06
1.81599e-06
1.81599e-06
1.81599e-06
1.81599e-06
1.81599e-06
1.81599e-06
1.81599e-06
1.81599e-06
1.816e-06
1.816e-06
1.816e-06
1.816e-06
1.816e-06
1.81599e-06
1.816e-06
1.816e-06
1.81601e-06
1.81603e-06
1.81605e-06
1.8161e-06
1.81617e-06
1.81632e-06
1.81656e-06
1.81703e-06
1.81778e-06
1.81891e-06
1.82032e-06
1.8221e-06
1.82418e-06
1.82648e-06
1.82903e-06
1.83176e-06
1.83466e-06
1.83756e-06
1.84047e-06
1.84326e-06
1.84587e-06
1.8482e-06
1.8502e-06
1.85187e-06
1.85323e-06
1.85429e-06
1.85509e-06
1.85558e-06
1.85602e-06
1.8565e-06
1.8575e-06
1.816e-06
1.816e-06
1.81599e-06
1.816e-06
1.816e-06
1.816e-06
1.816e-06
1.816e-06
1.816e-06
1.816e-06
1.816e-06
1.816e-06
1.816e-06
1.816e-06
1.81599e-06
1.81599e-06
1.816e-06
1.81601e-06
1.81603e-06
1.81606e-06
1.81611e-06
1.81619e-06
1.81634e-06
1.81658e-06
1.81707e-06
1.81789e-06
1.8191e-06
1.82063e-06
1.82254e-06
1.82475e-06
1.82718e-06
1.82985e-06
1.83267e-06
1.83563e-06
1.83856e-06
1.84143e-06
1.84413e-06
1.84656e-06
1.84867e-06
1.85041e-06
1.85182e-06
1.85294e-06
1.85374e-06
1.85427e-06
1.85468e-06
1.85507e-06
1.85617e-06
1.8584e-06
1.81599e-06
1.81599e-06
1.81599e-06
1.81599e-06
1.81599e-06
1.81599e-06
1.81599e-06
1.81599e-06
1.816e-06
1.816e-06
1.816e-06
1.816e-06
1.816e-06
1.816e-06
1.81599e-06
1.816e-06
1.816e-06
1.81601e-06
1.81603e-06
1.81606e-06
1.81612e-06
1.8162e-06
1.81636e-06
1.81663e-06
1.81714e-06
1.81799e-06
1.81924e-06
1.82082e-06
1.82279e-06
1.82507e-06
1.82757e-06
1.8303e-06
1.83315e-06
1.83613e-06
1.83903e-06
1.84183e-06
1.84441e-06
1.84671e-06
1.84863e-06
1.85018e-06
1.85139e-06
1.85227e-06
1.85285e-06
1.85313e-06
1.85341e-06
1.85365e-06
1.85495e-06
1.85793e-06
1.816e-06
1.816e-06
1.81599e-06
1.816e-06
1.816e-06
1.816e-06
1.816e-06
1.816e-06
1.816e-06
1.816e-06
1.816e-06
1.816e-06
1.816e-06
1.816e-06
1.81599e-06
1.816e-06
1.816e-06
1.81601e-06
1.81604e-06
1.81607e-06
1.81612e-06
1.81622e-06
1.81639e-06
1.81667e-06
1.81721e-06
1.81813e-06
1.81945e-06
1.82113e-06
1.82321e-06
1.82559e-06
1.82819e-06
1.83101e-06
1.83389e-06
1.83687e-06
1.83974e-06
1.84243e-06
1.84484e-06
1.84692e-06
1.8486e-06
1.84989e-06
1.85085e-06
1.85147e-06
1.85177e-06
1.85185e-06
1.85192e-06
1.85227e-06
1.85377e-06
1.85781e-06
1.81599e-06
1.81599e-06
1.81599e-06
1.81599e-06
1.81599e-06
1.81599e-06
1.81599e-06
1.81599e-06
1.816e-06
1.816e-06
1.816e-06
1.816e-06
1.816e-06
1.816e-06
1.81599e-06
1.816e-06
1.816e-06
1.81602e-06
1.81604e-06
1.81608e-06
1.81614e-06
1.81624e-06
1.81641e-06
1.81671e-06
1.81728e-06
1.81822e-06
1.81961e-06
1.82135e-06
1.8235e-06
1.82596e-06
1.82862e-06
1.83148e-06
1.83438e-06
1.83734e-06
1.84012e-06
1.84269e-06
1.84496e-06
1.84684e-06
1.84831e-06
1.84939e-06
1.85012e-06
1.85051e-06
1.85052e-06
1.85042e-06
1.85033e-06
1.85058e-06
1.85239e-06
1.85772e-06
1.816e-06
1.816e-06
1.816e-06
1.816e-06
1.816e-06
1.816e-06
1.816e-06
1.816e-06
1.816e-06
1.816e-06
1.816e-06
1.816e-06
1.816e-06
1.816e-06
1.81599e-06
1.816e-06
1.81601e-06
1.81602e-06
1.81604e-06
1.81608e-06
1.81615e-06
1.81626e-06
1.81644e-06
1.81676e-06
1.81736e-06
1.81836e-06
1.81981e-06
1.82164e-06
1.82389e-06
1.82641e-06
1.82915e-06
1.83205e-06
1.83494e-06
1.83785e-06
1.84054e-06
1.84296e-06
1.84503e-06
1.84669e-06
1.84791e-06
1.84876e-06
1.84925e-06
1.84936e-06
1.84916e-06
1.84876e-06
1.84864e-06
1.84878e-06
1.85104e-06
1.85742e-06
1.81599e-06
1.81599e-06
1.81599e-06
1.81599e-06
1.81599e-06
1.81599e-06
1.81599e-06
1.816e-06
1.816e-06
1.816e-06
1.816e-06
1.816e-06
1.816e-06
1.816e-06
1.81599e-06
1.816e-06
1.81601e-06
1.81602e-06
1.81605e-06
1.81609e-06
1.81616e-06
1.81627e-06
1.81647e-06
1.81681e-06
1.81743e-06
1.81848e-06
1.81999e-06
1.82187e-06
1.82419e-06
1.82679e-06
1.82956e-06
1.83248e-06
1.83535e-06
1.83818e-06
1.84075e-06
1.84301e-06
1.8449e-06
1.84635e-06
1.84736e-06
1.84798e-06
1.84825e-06
1.84806e-06
1.84765e-06
1.84702e-06
1.84679e-06
1.84698e-06
1.8495e-06
1.85733e-06
1.816e-06
1.816e-06
1.816e-06
1.816e-06
1.816e-06
1.816e-06
1.816e-06
1.816e-06
1.816e-06
1.816e-06
1.816e-06
1.816e-06
1.816e-06
1.816e-06
1.81599e-06
1.816e-06
1.81601e-06
1.81602e-06
1.81605e-06
1.81609e-06
1.81617e-06
1.81629e-06
1.8165e-06
1.81686e-06
1.81751e-06
1.81861e-06
1.82017e-06
1.82214e-06
1.82453e-06
1.82717e-06
1.82999e-06
1.83292e-06
1.83573e-06
1.83846e-06
1.8409e-06
1.84298e-06
1.84466e-06
1.84587e-06
1.84666e-06
1.84707e-06
1.84708e-06
1.84667e-06
1.84594e-06
1.84523e-06
1.84477e-06
1.84528e-06
1.84787e-06
1.85705e-06
1.81599e-06
1.81599e-06
1.81599e-06
1.81599e-06
1.81599e-06
1.81599e-06
1.81599e-06
1.816e-06
1.816e-06
1.816e-06
1.816e-06
1.816e-06
1.816e-06
1.816e-06
1.816e-06
1.816e-06
1.81601e-06
1.81603e-06
1.81606e-06
1.81611e-06
1.81618e-06
1.81631e-06
1.81653e-06
1.8169e-06
1.81759e-06
1.81873e-06
1.82035e-06
1.82237e-06
1.82482e-06
1.8275e-06
1.83033e-06
1.83324e-06
1.83598e-06
1.8386e-06
1.84087e-06
1.84278e-06
1.84425e-06
1.84526e-06
1.84584e-06
1.84604e-06
1.84577e-06
1.84513e-06
1.84414e-06
1.84327e-06
1.84268e-06
1.84334e-06
1.84607e-06
1.85688e-06
1.816e-06
1.816e-06
1.816e-06
1.816e-06
1.816e-06
1.816e-06
1.816e-06
1.816e-06
1.816e-06
1.816e-06
1.816e-06
1.816e-06
1.816e-06
1.816e-06
1.81599e-06
1.816e-06
1.81601e-06
1.81603e-06
1.81606e-06
1.81611e-06
1.81619e-06
1.81633e-06
1.81656e-06
1.81696e-06
1.81766e-06
1.81886e-06
1.82052e-06
1.82261e-06
1.82511e-06
1.8278e-06
1.83065e-06
1.83351e-06
1.83617e-06
1.83864e-06
1.84074e-06
1.84246e-06
1.84373e-06
1.84451e-06
1.8449e-06
1.84486e-06
1.84438e-06
1.84345e-06
1.84226e-06
1.8412e-06
1.84057e-06
1.84125e-06
1.84442e-06
1.85663e-06
1.81599e-06
1.81599e-06
1.81599e-06
1.81599e-06
1.81599e-06
1.81599e-06
1.816e-06
1.816e-06
1.816e-06
1.816e-06
1.816e-06
1.816e-06
1.816e-06
1.816e-06
1.816e-06
1.816e-06
1.81601e-06
1.81603e-06
1.81607e-06
1.81612e-06
1.81621e-06
1.81635e-06
1.81659e-06
1.817e-06
1.81774e-06
1.81897e-06
1.82069e-06
1.82282e-06
1.82534e-06
1.82806e-06
1.83088e-06
1.83368e-06
1.83623e-06
1.83855e-06
1.84048e-06
1.84201e-06
1.84307e-06
1.84366e-06
1.84383e-06
1.84361e-06
1.8428e-06
1.84172e-06
1.84021e-06
1.83911e-06
1.83834e-06
1.83908e-06
1.84258e-06
1.85643e-06
1.816e-06
1.816e-06
1.816e-06
1.816e-06
1.816e-06
1.816e-06
1.816e-06
1.816e-06
1.816e-06
1.816e-06
1.816e-06
1.816e-06
1.816e-06
1.816e-06
1.816e-06
1.816e-06
1.81601e-06
1.81603e-06
1.81607e-06
1.81612e-06
1.81622e-06
1.81637e-06
1.81662e-06
1.81705e-06
1.81781e-06
1.81908e-06
1.82084e-06
1.82301e-06
1.82556e-06
1.82825e-06
1.83104e-06
1.83376e-06
1.83619e-06
1.83834e-06
1.84008e-06
1.84142e-06
1.84227e-06
1.84267e-06
1.84266e-06
1.84218e-06
1.84119e-06
1.83979e-06
1.83824e-06
1.83684e-06
1.83627e-06
1.8365e-06
1.84119e-06
1.85615e-06
1.81599e-06
1.81599e-06
1.81599e-06
1.81599e-06
1.81599e-06
1.81599e-06
1.816e-06
1.816e-06
1.816e-06
1.816e-06
1.816e-06
1.816e-06
1.816e-06
1.816e-06
1.816e-06
1.816e-06
1.81601e-06
1.81604e-06
1.81608e-06
1.81614e-06
1.81623e-06
1.81639e-06
1.81665e-06
1.81709e-06
1.81788e-06
1.81918e-06
1.82098e-06
1.82317e-06
1.82572e-06
1.82839e-06
1.83112e-06
1.83374e-06
1.83603e-06
1.83801e-06
1.83958e-06
1.84071e-06
1.84137e-06
1.84159e-06
1.84139e-06
1.84065e-06
1.83947e-06
1.83782e-06
1.83616e-06
1.83467e-06
1.8341e-06
1.83421e-06
1.83978e-06
1.85584e-06
1.816e-06
1.816e-06
1.816e-06
1.816e-06
1.816e-06
1.816e-06
1.816e-06
1.816e-06
1.816e-06
1.816e-06
1.816e-06
1.816e-06
1.816e-06
1.816e-06
1.816e-06
1.816e-06
1.81602e-06
1.81604e-06
1.81608e-06
1.81614e-06
1.81624e-06
1.81641e-06
1.81667e-06
1.81713e-06
1.81793e-06
1.81927e-06
1.82109e-06
1.8233e-06
1.82584e-06
1.82845e-06
1.83111e-06
1.8336e-06
1.83574e-06
1.83754e-06
1.83892e-06
1.83986e-06
1.84033e-06
1.84038e-06
1.83997e-06
1.83905e-06
1.83759e-06
1.83583e-06
1.83402e-06
1.83254e-06
1.83183e-06
1.83205e-06
1.83826e-06
1.85531e-06
1.81599e-06
1.81599e-06
1.816e-06
1.81599e-06
1.81599e-06
1.816e-06
1.816e-06
1.816e-06
1.816e-06
1.816e-06
1.816e-06
1.816e-06
1.816e-06
1.816e-06
1.816e-06
1.816e-06
1.81602e-06
1.81604e-06
1.81609e-06
1.81615e-06
1.81626e-06
1.81643e-06
1.8167e-06
1.81716e-06
1.81798e-06
1.81934e-06
1.82119e-06
1.82339e-06
1.8259e-06
1.82845e-06
1.83101e-06
1.83336e-06
1.83535e-06
1.83697e-06
1.83817e-06
1.83892e-06
1.83921e-06
1.83906e-06
1.8385e-06
1.83725e-06
1.83573e-06
1.8337e-06
1.83196e-06
1.83035e-06
1.82981e-06
1.83002e-06
1.83657e-06
1.85474e-06
1.816e-06
1.816e-06
1.816e-06
1.816e-06
1.816e-06
1.816e-06
1.816e-06
1.816e-06
1.816e-06
1.816e-06
1.816e-06
1.816e-06
1.816e-06
1.816e-06
1.816e-06
1.816e-06
1.81602e-06
1.81604e-06
1.81609e-06
1.81616e-06
1.81627e-06
1.81645e-06
1.81673e-06
1.8172e-06
1.81801e-06
1.81939e-06
1.82123e-06
1.82344e-06
1.82589e-06
1.82835e-06
1.8308e-06
1.83299e-06
1.8348e-06
1.83624e-06
1.83726e-06
1.83783e-06
1.83794e-06
1.83765e-06
1.83686e-06
1.83548e-06
1.83368e-06
1.83176e-06
1.82976e-06
1.82851e-06
1.82752e-06
1.82906e-06
1.83418e-06
1.85397e-06
1.81599e-06
1.81599e-06
1.816e-06
1.81599e-06
1.816e-06
1.816e-06
1.816e-06
1.816e-06
1.816e-06
1.816e-06
1.816e-06
1.816e-06
1.816e-06
1.816e-06
1.816e-06
1.816e-06
1.81602e-06
1.81605e-06
1.8161e-06
1.81617e-06
1.81628e-06
1.81647e-06
1.81675e-06
1.81722e-06
1.81804e-06
1.81941e-06
1.82126e-06
1.82343e-06
1.82582e-06
1.82819e-06
1.8305e-06
1.83253e-06
1.83418e-06
1.83544e-06
1.83628e-06
1.83666e-06
1.83662e-06
1.83616e-06
1.83514e-06
1.83364e-06
1.83168e-06
1.82977e-06
1.82786e-06
1.82667e-06
1.82636e-06
1.82745e-06
1.83113e-06
1.85348e-06
1.816e-06
1.816e-06
1.816e-06
1.816e-06
1.816e-06
1.816e-06
1.816e-06
1.816e-06
1.816e-06
1.816e-06
1.816e-06
1.816e-06
1.816e-06
1.816e-06
1.816e-06
1.816e-06
1.81602e-06
1.81605e-06
1.8161e-06
1.81617e-06
1.81629e-06
1.81648e-06
1.81677e-06
1.81725e-06
1.81805e-06
1.8194e-06
1.82122e-06
1.82336e-06
1.82566e-06
1.8279e-06
1.83007e-06
1.83191e-06
1.83339e-06
1.83447e-06
1.83514e-06
1.83536e-06
1.83518e-06
1.83455e-06
1.83342e-06
1.83171e-06
1.82981e-06
1.82784e-06
1.82615e-06
1.82568e-06
1.82525e-06
1.82661e-06
1.82842e-06
1.85296e-06
1.81599e-06
1.81599e-06
1.816e-06
1.816e-06
1.816e-06
1.816e-06
1.816e-06
1.816e-06
1.816e-06
1.816e-06
1.816e-06
1.816e-06
1.816e-06
1.816e-06
1.816e-06
1.816e-06
1.81602e-06
1.81605e-06
1.8161e-06
1.81618e-06
1.81631e-06
1.8165e-06
1.81679e-06
1.81726e-06
1.81806e-06
1.81937e-06
1.82115e-06
1.82323e-06
1.82545e-06
1.82756e-06
1.82957e-06
1.83125e-06
1.83255e-06
1.83347e-06
1.83396e-06
1.83402e-06
1.83367e-06
1.83294e-06
1.83153e-06
1.82992e-06
1.82787e-06
1.82624e-06
1.8249e-06
1.82482e-06
1.82471e-06
1.82559e-06
1.82516e-06
1.85275e-06
1.816e-06
1.816e-06
1.816e-06
1.816e-06
1.816e-06
1.816e-06
1.816e-06
1.816e-06
1.816e-06
1.816e-06
1.816e-06
1.816e-06
1.816e-06
1.816e-06
1.816e-06
1.816e-06
1.81602e-06
1.81605e-06
1.81611e-06
1.81619e-06
1.81631e-06
1.81651e-06
1.8168e-06
1.81727e-06
1.81804e-06
1.81931e-06
1.821e-06
1.823e-06
1.82511e-06
1.82708e-06
1.82891e-06
1.83041e-06
1.83153e-06
1.83229e-06
1.83262e-06
1.83254e-06
1.83209e-06
1.83116e-06
1.82977e-06
1.82796e-06
1.82623e-06
1.82455e-06
1.82434e-06
1.82427e-06
1.82497e-06
1.82416e-06
1.82464e-06
1.85205e-06
1.81599e-06
1.81599e-06
1.816e-06
1.816e-06
1.816e-06
1.816e-06
1.816e-06
1.816e-06
1.816e-06
1.816e-06
1.816e-06
1.816e-06
1.816e-06
1.816e-06
1.816e-06
1.816e-06
1.81602e-06
1.81606e-06
1.81611e-06
1.8162e-06
1.81632e-06
1.81652e-06
1.81681e-06
1.81727e-06
1.81803e-06
1.81924e-06
1.82084e-06
1.82272e-06
1.82471e-06
1.82653e-06
1.82821e-06
1.82953e-06
1.8305e-06
1.83108e-06
1.83125e-06
1.83103e-06
1.83044e-06
1.82935e-06
1.82788e-06
1.82613e-06
1.82459e-06
1.82378e-06
1.82402e-06
1.82508e-06
1.82592e-06
1.82566e-06
1.82536e-06
1.8513e-06
1.816e-06
1.816e-06
1.816e-06
1.816e-06
1.816e-06
1.816e-06
1.816e-06
1.816e-06
1.816e-06
1.816e-06
1.816e-06
1.816e-06
1.816e-06
1.816e-06
1.816e-06
1.816e-06
1.81602e-06
1.81606e-06
1.81612e-06
1.8162e-06
1.81633e-06
1.81653e-06
1.81681e-06
1.81726e-06
1.81798e-06
1.81913e-06
1.8206e-06
1.82233e-06
1.82417e-06
1.82583e-06
1.82732e-06
1.82846e-06
1.82927e-06
1.82971e-06
1.82974e-06
1.82941e-06
1.82866e-06
1.82752e-06
1.82595e-06
1.82443e-06
1.8232e-06
1.82328e-06
1.82467e-06
1.82628e-06
1.82712e-06
1.8265e-06
1.82653e-06
1.84874e-06
1.81599e-06
1.81599e-06
1.816e-06
1.816e-06
1.816e-06
1.816e-06
1.816e-06
1.816e-06
1.816e-06
1.816e-06
1.816e-06
1.816e-06
1.816e-06
1.816e-06
1.816e-06
1.816e-06
1.81602e-06
1.81606e-06
1.81612e-06
1.8162e-06
1.81634e-06
1.81653e-06
1.81681e-06
1.81724e-06
1.81794e-06
1.81901e-06
1.82037e-06
1.82192e-06
1.82358e-06
1.82508e-06
1.82641e-06
1.82739e-06
1.82806e-06
1.82835e-06
1.82824e-06
1.82775e-06
1.82693e-06
1.82557e-06
1.82419e-06
1.82283e-06
1.82251e-06
1.82353e-06
1.82601e-06
1.82814e-06
1.83011e-06
1.82682e-06
1.82587e-06
1.85023e-06
1.816e-06
1.816e-06
1.816e-06
1.816e-06
1.816e-06
1.816e-06
1.816e-06
1.816e-06
1.816e-06
1.816e-06
1.816e-06
1.816e-06
1.816e-06
1.816e-06
1.816e-06
1.816e-06
1.81602e-06
1.81606e-06
1.81612e-06
1.8162e-06
1.81633e-06
1.81653e-06
1.81681e-06
1.81721e-06
1.81786e-06
1.81886e-06
1.82007e-06
1.82142e-06
1.82287e-06
1.82417e-06
1.8253e-06
1.82613e-06
1.82666e-06
1.82684e-06
1.82662e-06
1.82604e-06
1.82505e-06
1.8238e-06
1.82251e-06
1.82191e-06
1.82219e-06
1.82509e-06
1.82792e-06
1.83215e-06
1.83383e-06
1.82865e-06
1.83474e-06
1.8439e-06
1.816e-06
1.81599e-06
1.816e-06
1.816e-06
1.816e-06
1.816e-06
1.816e-06
1.816e-06
1.816e-06
1.816e-06
1.816e-06
1.816e-06
1.816e-06
1.816e-06
1.816e-06
1.816e-06
1.81602e-06
1.81606e-06
1.81612e-06
1.81621e-06
1.81634e-06
1.81652e-06
1.81679e-06
1.81718e-06
1.81778e-06
1.81869e-06
1.81979e-06
1.82096e-06
1.82218e-06
1.82327e-06
1.82422e-06
1.8249e-06
1.82531e-06
1.82537e-06
1.82504e-06
1.82434e-06
1.82328e-06
1.8221e-06
1.82116e-06
1.82135e-06
1.82311e-06
1.82718e-06
1.83109e-06
1.83598e-06
1.83617e-06
1.83153e-06
1.82175e-06
1.85182e-06
1.816e-06
1.816e-06
1.816e-06
1.816e-06
1.816e-06
1.816e-06
1.816e-06
1.816e-06
1.816e-06
1.816e-06
1.816e-06
1.81601e-06
1.81601e-06
1.816e-06
1.816e-06
1.816e-06
1.81602e-06
1.81606e-06
1.81612e-06
1.8162e-06
1.81633e-06
1.81652e-06
1.81677e-06
1.81712e-06
1.81767e-06
1.81848e-06
1.81942e-06
1.82042e-06
1.82142e-06
1.82228e-06
1.82299e-06
1.82352e-06
1.82382e-06
1.82381e-06
1.82342e-06
1.82261e-06
1.82161e-06
1.82068e-06
1.82043e-06
1.82165e-06
1.82439e-06
1.83051e-06
1.83458e-06
1.84049e-06
1.84034e-06
1.83572e-06
1.83764e-06
1.84486e-06
1.816e-06
1.81599e-06
1.816e-06
1.816e-06
1.816e-06
1.816e-06
1.816e-06
1.816e-06
1.816e-06
1.816e-06
1.816e-06
1.81601e-06
1.81601e-06
1.816e-06
1.816e-06
1.816e-06
1.81602e-06
1.81606e-06
1.81612e-06
1.81621e-06
1.81633e-06
1.8165e-06
1.81674e-06
1.81707e-06
1.81757e-06
1.81828e-06
1.81909e-06
1.81992e-06
1.82076e-06
1.8214e-06
1.8219e-06
1.82225e-06
1.82244e-06
1.82235e-06
1.82186e-06
1.82108e-06
1.82017e-06
1.81987e-06
1.82016e-06
1.82273e-06
1.82701e-06
1.83328e-06
1.83864e-06
1.84329e-06
1.84234e-06
1.84181e-06
1.82948e-06
1.85549e-06
1.816e-06
1.816e-06
1.816e-06
1.816e-06
1.816e-06
1.816e-06
1.816e-06
1.816e-06
1.816e-06
1.816e-06
1.81601e-06
1.81601e-06
1.81601e-06
1.816e-06
1.816e-06
1.816e-06
1.81602e-06
1.81606e-06
1.81612e-06
1.8162e-06
1.81632e-06
1.81649e-06
1.81671e-06
1.817e-06
1.81742e-06
1.81803e-06
1.81869e-06
1.81933e-06
1.81999e-06
1.82048e-06
1.82076e-06
1.82095e-06
1.82102e-06
1.82088e-06
1.82041e-06
1.81969e-06
1.81927e-06
1.81945e-06
1.82118e-06
1.8244e-06
1.83011e-06
1.83605e-06
1.84275e-06
1.84556e-06
1.84845e-06
1.84411e-06
1.84059e-06
1.85203e-06
1.816e-06
1.81599e-06
1.816e-06
1.816e-06
1.816e-06
1.816e-06
1.816e-06
1.816e-06
1.816e-06
1.816e-06
1.816e-06
1.81601e-06
1.81601e-06
1.81601e-06
1.816e-06
1.816e-06
1.81602e-06
1.81606e-06
1.81611e-06
1.8162e-06
1.81632e-06
1.81647e-06
1.81667e-06
1.81693e-06
1.8173e-06
1.81781e-06
1.81834e-06
1.81881e-06
1.81929e-06
1.81968e-06
1.81984e-06
1.81986e-06
1.81982e-06
1.81963e-06
1.8192e-06
1.81873e-06
1.81895e-06
1.81992e-06
1.82262e-06
1.82691e-06
1.83336e-06
1.83829e-06
1.84586e-06
1.84801e-06
1.85032e-06
1.8479e-06
1.84039e-06
1.85764e-06
1.816e-06
1.816e-06
1.816e-06
1.816e-06
1.816e-06
1.816e-06
1.816e-06
1.816e-06
1.816e-06
1.816e-06
1.81601e-06
1.81601e-06
1.81601e-06
1.81601e-06
1.816e-06
1.816e-06
1.81602e-06
1.81606e-06
1.81611e-06
1.81619e-06
1.81629e-06
1.81645e-06
1.81663e-06
1.81684e-06
1.81714e-06
1.81754e-06
1.81791e-06
1.81823e-06
1.81853e-06
1.81877e-06
1.81885e-06
1.81881e-06
1.81873e-06
1.81855e-06
1.81826e-06
1.81835e-06
1.81922e-06
1.82119e-06
1.82485e-06
1.82951e-06
1.83559e-06
1.84122e-06
1.84876e-06
1.85109e-06
1.85431e-06
1.8493e-06
1.84408e-06
1.85344e-06
1.816e-06
1.816e-06
1.816e-06
1.816e-06
1.816e-06
1.816e-06
1.816e-06
1.816e-06
1.816e-06
1.816e-06
1.81601e-06
1.81601e-06
1.81601e-06
1.81601e-06
1.816e-06
1.816e-06
1.81602e-06
1.81605e-06
1.81611e-06
1.81618e-06
1.81629e-06
1.81641e-06
1.81658e-06
1.81677e-06
1.81701e-06
1.81731e-06
1.81757e-06
1.81776e-06
1.81793e-06
1.81805e-06
1.81806e-06
1.81804e-06
1.81796e-06
1.81786e-06
1.8179e-06
1.81844e-06
1.82036e-06
1.82304e-06
1.82722e-06
1.83137e-06
1.83824e-06
1.84309e-06
1.85191e-06
1.85324e-06
1.85438e-06
1.85658e-06
1.84905e-06
1.86207e-06
1.81601e-06
1.816e-06
1.816e-06
1.816e-06
1.816e-06
1.816e-06
1.816e-06
1.816e-06
1.816e-06
1.81601e-06
1.81601e-06
1.81601e-06
1.81601e-06
1.81601e-06
1.816e-06
1.816e-06
1.81602e-06
1.81605e-06
1.8161e-06
1.81617e-06
1.81626e-06
1.81639e-06
1.81653e-06
1.81666e-06
1.81684e-06
1.81704e-06
1.81717e-06
1.81725e-06
1.8173e-06
1.81738e-06
1.81737e-06
1.81741e-06
1.8175e-06
1.81752e-06
1.81784e-06
1.81931e-06
1.82194e-06
1.82511e-06
1.82924e-06
1.83381e-06
1.84049e-06
1.84626e-06
1.85391e-06
1.85463e-06
1.86205e-06
1.84466e-06
1.85061e-06
1.84371e-06
1.816e-06
1.816e-06
1.816e-06
1.816e-06
1.816e-06
1.816e-06
1.816e-06
1.816e-06
1.816e-06
1.816e-06
1.81601e-06
1.81601e-06
1.81601e-06
1.81601e-06
1.816e-06
1.816e-06
1.81601e-06
1.81605e-06
1.81609e-06
1.81616e-06
1.81625e-06
1.81635e-06
1.81647e-06
1.81658e-06
1.8167e-06
1.81683e-06
1.81687e-06
1.8169e-06
1.81695e-06
1.81705e-06
1.81712e-06
1.81725e-06
1.81746e-06
1.81765e-06
1.8185e-06
1.82052e-06
1.82381e-06
1.82696e-06
1.83117e-06
1.83574e-06
1.84274e-06
1.84779e-06
1.85688e-06
1.85987e-06
1.85562e-06
1.86862e-06
1.84624e-06
1.87172e-06
1.81601e-06
1.816e-06
1.816e-06
1.816e-06
1.816e-06
1.816e-06
1.816e-06
1.816e-06
1.816e-06
1.81601e-06
1.81601e-06
1.81601e-06
1.81601e-06
1.81601e-06
1.816e-06
1.816e-06
1.81601e-06
1.81604e-06
1.81608e-06
1.81614e-06
1.81622e-06
1.81631e-06
1.81641e-06
1.81647e-06
1.81654e-06
1.81658e-06
1.81655e-06
1.8166e-06
1.81668e-06
1.81683e-06
1.817e-06
1.81734e-06
1.81778e-06
1.81823e-06
1.81934e-06
1.82201e-06
1.82547e-06
1.82858e-06
1.83306e-06
1.83775e-06
1.84475e-06
1.85047e-06
1.85855e-06
1.85627e-06
1.86895e-06
1.83407e-06
1.85224e-06
1.83111e-06
1.816e-06
1.816e-06
1.816e-06
1.816e-06
1.816e-06
1.816e-06
1.816e-06
1.816e-06
1.816e-06
1.816e-06
1.81601e-06
1.81601e-06
1.81601e-06
1.81601e-06
1.816e-06
1.816e-06
1.81601e-06
1.81604e-06
1.81608e-06
1.81613e-06
1.81621e-06
1.81627e-06
1.81635e-06
1.81639e-06
1.81642e-06
1.81642e-06
1.81643e-06
1.81654e-06
1.81672e-06
1.81699e-06
1.81727e-06
1.81778e-06
1.81845e-06
1.81909e-06
1.8205e-06
1.82323e-06
1.82681e-06
1.83015e-06
1.83485e-06
1.83917e-06
1.84677e-06
1.85133e-06
1.86087e-06
1.86427e-06
1.85917e-06
1.87718e-06
1.83936e-06
1.87717e-06
1.81601e-06
1.816e-06
1.816e-06
1.816e-06
1.816e-06
1.816e-06
1.816e-06
1.816e-06
1.816e-06
1.81601e-06
1.81601e-06
1.81601e-06
1.81601e-06
1.81601e-06
1.81601e-06
1.816e-06
1.81601e-06
1.81603e-06
1.81607e-06
1.81611e-06
1.81617e-06
1.81623e-06
1.81628e-06
1.81628e-06
1.81627e-06
1.81625e-06
1.81632e-06
1.81652e-06
1.81679e-06
1.81716e-06
1.81762e-06
1.81827e-06
1.81909e-06
1.81988e-06
1.8213e-06
1.82421e-06
1.82821e-06
1.83151e-06
1.83634e-06
1.84086e-06
1.8485e-06
1.85331e-06
1.86297e-06
1.85705e-06
1.87402e-06
1.82975e-06
1.84668e-06
1.82794e-06
1.816e-06
1.816e-06
1.816e-06
1.816e-06
1.816e-06
1.816e-06
1.816e-06
1.816e-06
1.816e-06
1.81601e-06
1.81601e-06
1.81601e-06
1.81601e-06
1.81601e-06
1.81601e-06
1.816e-06
1.81601e-06
1.81603e-06
1.81606e-06
1.8161e-06
1.81615e-06
1.81618e-06
1.81622e-06
1.81621e-06
1.81619e-06
1.81624e-06
1.81639e-06
1.8167e-06
1.8171e-06
1.81755e-06
1.81806e-06
1.81876e-06
1.81963e-06
1.82041e-06
1.82193e-06
1.82507e-06
1.82935e-06
1.83265e-06
1.83779e-06
1.84165e-06
1.85007e-06
1.8532e-06
1.86463e-06
1.86507e-06
1.86431e-06
1.88328e-06
1.83151e-06
1.8712e-06
1.81601e-06
1.816e-06
1.816e-06
1.816e-06
1.816e-06
1.816e-06
1.816e-06
1.816e-06
1.81601e-06
1.81601e-06
1.81601e-06
1.81601e-06
1.81601e-06
1.81601e-06
1.81601e-06
1.816e-06
1.81601e-06
1.81602e-06
1.81604e-06
1.81608e-06
1.81612e-06
1.81615e-06
1.81616e-06
1.81612e-06
1.81612e-06
1.81622e-06
1.81644e-06
1.81682e-06
1.81728e-06
1.81776e-06
1.81827e-06
1.81892e-06
1.81978e-06
1.8206e-06
1.82232e-06
1.82587e-06
1.83021e-06
1.83375e-06
1.83869e-06
1.84329e-06
1.85099e-06
1.85552e-06
1.86561e-06
1.8592e-06
1.87262e-06
1.83159e-06
1.83488e-06
1.83365e-06
1.816e-06
1.816e-06
1.816e-06
1.816e-06
1.816e-06
1.816e-06
1.816e-06
1.816e-06
1.816e-06
1.81601e-06
1.81601e-06
1.81601e-06
1.81601e-06
1.81601e-06
1.81601e-06
1.816e-06
1.816e-06
1.81602e-06
1.81604e-06
1.81607e-06
1.8161e-06
1.8161e-06
1.8161e-06
1.81609e-06
1.81615e-06
1.81632e-06
1.81661e-06
1.81704e-06
1.81749e-06
1.81796e-06
1.81842e-06
1.81901e-06
1.81981e-06
1.82073e-06
1.82258e-06
1.82617e-06
1.83089e-06
1.83439e-06
1.83949e-06
1.84373e-06
1.85181e-06
1.85584e-06
1.86623e-06
1.86628e-06
1.86676e-06
1.8714e-06
1.8331e-06
1.86707e-06
1.81601e-06
1.816e-06
1.816e-06
1.816e-06
1.816e-06
1.816e-06
1.816e-06
1.816e-06
1.81601e-06
1.81601e-06
1.81601e-06
1.81601e-06
1.81601e-06
1.81601e-06
1.81601e-06
1.816e-06
1.816e-06
1.81601e-06
1.81602e-06
1.81604e-06
1.81606e-06
1.81607e-06
1.81606e-06
1.81608e-06
1.81618e-06
1.81637e-06
1.81668e-06
1.81707e-06
1.81747e-06
1.81791e-06
1.81837e-06
1.81889e-06
1.81965e-06
1.8205e-06
1.8224e-06
1.82645e-06
1.83108e-06
1.83494e-06
1.83952e-06
1.84465e-06
1.85124e-06
1.8574e-06
1.86424e-06
1.86431e-06
1.86558e-06
1.84107e-06
1.82994e-06
1.849e-06
1.816e-06
1.816e-06
1.816e-06
1.816e-06
1.816e-06
1.816e-06
1.816e-06
1.816e-06
1.816e-06
1.81601e-06
1.81601e-06
1.81601e-06
1.81601e-06
1.81601e-06
1.81601e-06
1.81601e-06
1.816e-06
1.81601e-06
1.81602e-06
1.81604e-06
1.81605e-06
1.81604e-06
1.81605e-06
1.81615e-06
1.81628e-06
1.81649e-06
1.81678e-06
1.81713e-06
1.8175e-06
1.81791e-06
1.81832e-06
1.81874e-06
1.81931e-06
1.82009e-06
1.82206e-06
1.82612e-06
1.831e-06
1.83493e-06
1.83936e-06
1.84432e-06
1.85053e-06
1.85653e-06
1.86227e-06
1.86557e-06
1.8614e-06
1.85754e-06
1.8351e-06
1.86041e-06
1.81601e-06
1.816e-06
1.816e-06
1.816e-06
1.816e-06
1.816e-06
1.816e-06
1.816e-06
1.81601e-06
1.81601e-06
1.81601e-06
1.81601e-06
1.81601e-06
1.81601e-06
1.81601e-06
1.81601e-06
1.81601e-06
1.81601e-06
1.81601e-06
1.81602e-06
1.81603e-06
1.81603e-06
1.81607e-06
1.81621e-06
1.81633e-06
1.81651e-06
1.81674e-06
1.81702e-06
1.81732e-06
1.81767e-06
1.81803e-06
1.81838e-06
1.81887e-06
1.81948e-06
1.82131e-06
1.82556e-06
1.83045e-06
1.83459e-06
1.83869e-06
1.84386e-06
1.8493e-06
1.85545e-06
1.86058e-06
1.86193e-06
1.86046e-06
1.84527e-06
1.82924e-06
1.85444e-06
1.816e-06
1.816e-06
1.816e-06
1.816e-06
1.816e-06
1.816e-06
1.816e-06
1.816e-06
1.81601e-06
1.81601e-06
1.81601e-06
1.81601e-06
1.81601e-06
1.81601e-06
1.81601e-06
1.81601e-06
1.81601e-06
1.81601e-06
1.81601e-06
1.81602e-06
1.81603e-06
1.81605e-06
1.81613e-06
1.8163e-06
1.81642e-06
1.81657e-06
1.81676e-06
1.81698e-06
1.81721e-06
1.81747e-06
1.81779e-06
1.8181e-06
1.81837e-06
1.8188e-06
1.82037e-06
1.82444e-06
1.82943e-06
1.83377e-06
1.83748e-06
1.84273e-06
1.84698e-06
1.85408e-06
1.8556e-06
1.86167e-06
1.85105e-06
1.84748e-06
1.83699e-06
1.85355e-06
1.81601e-06
1.81601e-06
1.816e-06
1.816e-06
1.816e-06
1.816e-06
1.816e-06
1.81601e-06
1.81601e-06
1.81601e-06
1.81601e-06
1.81601e-06
1.81601e-06
1.81602e-06
1.81601e-06
1.81601e-06
1.81601e-06
1.81601e-06
1.81601e-06
1.81601e-06
1.81604e-06
1.81609e-06
1.81618e-06
1.81634e-06
1.81642e-06
1.81653e-06
1.81665e-06
1.81677e-06
1.81691e-06
1.81711e-06
1.81738e-06
1.81761e-06
1.81788e-06
1.81805e-06
1.81926e-06
1.82303e-06
1.82795e-06
1.83245e-06
1.83594e-06
1.84092e-06
1.84464e-06
1.85073e-06
1.85278e-06
1.85614e-06
1.85109e-06
1.8431e-06
1.83119e-06
1.84925e-06
1.816e-06
1.816e-06
1.816e-06
1.816e-06
1.816e-06
1.816e-06
1.816e-06
1.816e-06
1.81601e-06
1.81601e-06
1.81601e-06
1.81601e-06
1.81601e-06
1.81602e-06
1.81602e-06
1.81601e-06
1.81601e-06
1.81601e-06
1.81602e-06
1.81603e-06
1.81607e-06
1.81613e-06
1.81623e-06
1.8164e-06
1.81648e-06
1.81655e-06
1.8166e-06
1.81666e-06
1.81676e-06
1.81691e-06
1.8171e-06
1.81729e-06
1.81744e-06
1.81756e-06
1.81824e-06
1.82133e-06
1.82607e-06
1.83071e-06
1.83386e-06
1.83872e-06
1.84131e-06
1.84784e-06
1.84678e-06
1.85296e-06
1.84056e-06
1.83717e-06
1.83126e-06
1.84583e-06
1.81601e-06
1.81601e-06
1.816e-06
1.816e-06
1.816e-06
1.816e-06
1.816e-06
1.81601e-06
1.81601e-06
1.81601e-06
1.81601e-06
1.81601e-06
1.81602e-06
1.81602e-06
1.81602e-06