/*--------------------------------*- C++ -*----------------------------------*\
  =========                 |
  \\      /  F ield         | OpenFOAM: The Open Source CFD Toolbox
   \\    /   O peration     | Website:  https://openfoam.org
    \\  /    A nd           | Version:  10
     \\/     M anipulation  |
\*---------------------------------------------------------------------------*/
FoamFile
{
    format      ascii;
    class       volScalarField;
    location    "10";
    object      nuTilda;
}
// * * * * * * * * * * * * * * * * * * * * * * * * * * * * * * * * * * * * * //

dimensions      [0 2 -1 0 0 0 0];

internalField   nonuniform List<scalar> 
38016
(
2.6e-05
2.6e-05
2.6e-05
2.6e-05
2.6e-05
2.6e-05
2.6e-05
2.6e-05
2.6e-05
2.6e-05
2.6e-05
2.6e-05
2.6e-05
2.6e-05
2.6e-05
2.6e-05
2.6e-05
2.6e-05
2.60001e-05
2.60001e-05
2.60002e-05
2.60003e-05
2.60007e-05
2.6001e-05
2.60018e-05
2.60033e-05
2.60062e-05
2.60099e-05
2.60146e-05
2.60202e-05
2.60266e-05
2.60337e-05
2.60416e-05
2.60502e-05
2.60592e-05
2.60688e-05
2.60788e-05
2.60888e-05
2.60988e-05
2.61085e-05
2.61177e-05
2.61263e-05
2.61341e-05
2.61408e-05
2.61461e-05
2.61496e-05
2.61476e-05
2.61486e-05
2.6e-05
2.6e-05
2.6e-05
2.6e-05
2.6e-05
2.6e-05
2.6e-05
2.6e-05
2.6e-05
2.6e-05
2.6e-05
2.6e-05
2.6e-05
2.6e-05
2.6e-05
2.6e-05
2.6e-05
2.6e-05
2.60001e-05
2.60002e-05
2.60003e-05
2.60005e-05
2.60011e-05
2.6002e-05
2.60038e-05
2.60059e-05
2.60092e-05
2.60127e-05
2.60173e-05
2.60226e-05
2.60283e-05
2.60348e-05
2.6042e-05
2.60498e-05
2.60578e-05
2.60662e-05
2.60748e-05
2.60836e-05
2.60921e-05
2.61003e-05
2.6108e-05
2.6115e-05
2.61213e-05
2.61266e-05
2.61306e-05
2.61332e-05
2.61309e-05
2.61212e-05
2.6e-05
2.6e-05
2.6e-05
2.6e-05
2.6e-05
2.6e-05
2.6e-05
2.6e-05
2.6e-05
2.6e-05
2.6e-05
2.6e-05
2.6e-05
2.6e-05
2.6e-05
2.6e-05
2.6e-05
2.6e-05
2.60001e-05
2.60001e-05
2.60002e-05
2.60004e-05
2.60008e-05
2.60011e-05
2.60025e-05
2.60045e-05
2.60081e-05
2.60123e-05
2.60176e-05
2.60239e-05
2.60309e-05
2.60386e-05
2.60472e-05
2.60563e-05
2.60661e-05
2.60763e-05
2.60869e-05
2.60975e-05
2.6108e-05
2.61182e-05
2.61279e-05
2.61368e-05
2.61451e-05
2.61524e-05
2.61585e-05
2.61632e-05
2.6165e-05
2.61628e-05
2.6e-05
2.6e-05
2.6e-05
2.6e-05
2.6e-05
2.6e-05
2.6e-05
2.6e-05
2.6e-05
2.6e-05
2.6e-05
2.6e-05
2.6e-05
2.6e-05
2.6e-05
2.6e-05
2.6e-05
2.6e-05
2.60001e-05
2.60001e-05
2.60003e-05
2.60005e-05
2.60009e-05
2.60015e-05
2.60028e-05
2.60049e-05
2.60082e-05
2.60124e-05
2.60179e-05
2.60244e-05
2.60317e-05
2.604e-05
2.60493e-05
2.60594e-05
2.607e-05
2.60812e-05
2.60926e-05
2.6104e-05
2.61151e-05
2.61256e-05
2.61353e-05
2.61443e-05
2.61522e-05
2.6159e-05
2.61645e-05
2.61683e-05
2.61698e-05
2.61735e-05
2.6e-05
2.6e-05
2.6e-05
2.6e-05
2.6e-05
2.6e-05
2.6e-05
2.6e-05
2.6e-05
2.6e-05
2.6e-05
2.6e-05
2.6e-05
2.6e-05
2.6e-05
2.6e-05
2.6e-05
2.60001e-05
2.60001e-05
2.60002e-05
2.60004e-05
2.60006e-05
2.60012e-05
2.60021e-05
2.60041e-05
2.60067e-05
2.60109e-05
2.60157e-05
2.60217e-05
2.60287e-05
2.60365e-05
2.6045e-05
2.60544e-05
2.60644e-05
2.60747e-05
2.60854e-05
2.60962e-05
2.61069e-05
2.61171e-05
2.61266e-05
2.61353e-05
2.61428e-05
2.61494e-05
2.61549e-05
2.6159e-05
2.61613e-05
2.61596e-05
2.61483e-05
2.6e-05
2.6e-05
2.6e-05
2.6e-05
2.6e-05
2.6e-05
2.6e-05
2.6e-05
2.6e-05
2.6e-05
2.6e-05
2.6e-05
2.6e-05
2.6e-05
2.6e-05
2.6e-05
2.6e-05
2.6e-05
2.60001e-05
2.60002e-05
2.60003e-05
2.60005e-05
2.60009e-05
2.60015e-05
2.60029e-05
2.60054e-05
2.60092e-05
2.60142e-05
2.60206e-05
2.60282e-05
2.60366e-05
2.60461e-05
2.60564e-05
2.60676e-05
2.6079e-05
2.60909e-05
2.61027e-05
2.61141e-05
2.61248e-05
2.61346e-05
2.61433e-05
2.6151e-05
2.61575e-05
2.6163e-05
2.61673e-05
2.61706e-05
2.61747e-05
2.6183e-05
2.6e-05
2.6e-05
2.6e-05
2.6e-05
2.6e-05
2.6e-05
2.6e-05
2.6e-05
2.6e-05
2.6e-05
2.6e-05
2.6e-05
2.6e-05
2.6e-05
2.6e-05
2.6e-05
2.6e-05
2.60001e-05
2.60001e-05
2.60002e-05
2.60004e-05
2.60007e-05
2.60013e-05
2.60023e-05
2.60043e-05
2.60071e-05
2.60115e-05
2.60167e-05
2.60233e-05
2.6031e-05
2.60395e-05
2.60489e-05
2.6059e-05
2.60699e-05
2.60808e-05
2.6092e-05
2.6103e-05
2.61135e-05
2.61231e-05
2.61317e-05
2.61392e-05
2.61453e-05
2.61505e-05
2.61544e-05
2.61571e-05
2.61583e-05
2.61573e-05
2.61514e-05
2.6e-05
2.6e-05
2.6e-05
2.6e-05
2.6e-05
2.6e-05
2.6e-05
2.6e-05
2.6e-05
2.6e-05
2.6e-05
2.6e-05
2.6e-05
2.6e-05
2.6e-05
2.6e-05
2.6e-05
2.60001e-05
2.60001e-05
2.60002e-05
2.60004e-05
2.60007e-05
2.60012e-05
2.6002e-05
2.60037e-05
2.60067e-05
2.60112e-05
2.60169e-05
2.60241e-05
2.60324e-05
2.60417e-05
2.60519e-05
2.60627e-05
2.60743e-05
2.60858e-05
2.60975e-05
2.61087e-05
2.6119e-05
2.61284e-05
2.61364e-05
2.61431e-05
2.61488e-05
2.61532e-05
2.61565e-05
2.61591e-05
2.61612e-05
2.61655e-05
2.61731e-05
2.6e-05
2.6e-05
2.6e-05
2.6e-05
2.6e-05
2.6e-05
2.6e-05
2.6e-05
2.6e-05
2.6e-05
2.6e-05
2.6e-05
2.6e-05
2.6e-05
2.6e-05
2.6e-05
2.6e-05
2.60001e-05
2.60001e-05
2.60003e-05
2.60005e-05
2.60008e-05
2.60014e-05
2.60024e-05
2.60044e-05
2.60075e-05
2.60122e-05
2.60181e-05
2.60254e-05
2.60338e-05
2.60432e-05
2.60535e-05
2.60644e-05
2.60759e-05
2.60873e-05
2.60985e-05
2.61092e-05
2.61189e-05
2.61275e-05
2.61347e-05
2.61406e-05
2.61452e-05
2.61486e-05
2.6151e-05
2.61523e-05
2.61535e-05
2.61553e-05
2.61596e-05
2.6e-05
2.6e-05
2.6e-05
2.6e-05
2.6e-05
2.6e-05
2.6e-05
2.6e-05
2.6e-05
2.6e-05
2.6e-05
2.6e-05
2.6e-05
2.6e-05
2.6e-05
2.6e-05
2.6e-05
2.60001e-05
2.60002e-05
2.60003e-05
2.60005e-05
2.60008e-05
2.60014e-05
2.60025e-05
2.60045e-05
2.60079e-05
2.60129e-05
2.60192e-05
2.60271e-05
2.60361e-05
2.6046e-05
2.60568e-05
2.60681e-05
2.60798e-05
2.60913e-05
2.61024e-05
2.61126e-05
2.61217e-05
2.61294e-05
2.61355e-05
2.61404e-05
2.6144e-05
2.61464e-05
2.61478e-05
2.61489e-05
2.61501e-05
2.61552e-05
2.6166e-05
2.6e-05
2.6e-05
2.6e-05
2.6e-05
2.6e-05
2.6e-05
2.6e-05
2.6e-05
2.6e-05
2.6e-05
2.6e-05
2.6e-05
2.6e-05
2.6e-05
2.6e-05
2.6e-05
2.6e-05
2.60001e-05
2.60002e-05
2.60003e-05
2.60005e-05
2.60009e-05
2.60016e-05
2.60027e-05
2.60048e-05
2.60083e-05
2.60135e-05
2.602e-05
2.60281e-05
2.60373e-05
2.60475e-05
2.60584e-05
2.60698e-05
2.60815e-05
2.60928e-05
2.61035e-05
2.61131e-05
2.61216e-05
2.61285e-05
2.61339e-05
2.61379e-05
2.61406e-05
2.61422e-05
2.61426e-05
2.61431e-05
2.61438e-05
2.61492e-05
2.61626e-05
2.6e-05
2.6e-05
2.6e-05
2.6e-05
2.6e-05
2.6e-05
2.6e-05
2.6e-05
2.6e-05
2.6e-05
2.6e-05
2.6e-05
2.6e-05
2.6e-05
2.6e-05
2.6e-05
2.6e-05
2.60001e-05
2.60002e-05
2.60003e-05
2.60006e-05
2.6001e-05
2.60017e-05
2.60028e-05
2.60051e-05
2.60089e-05
2.60144e-05
2.60213e-05
2.60298e-05
2.60395e-05
2.605e-05
2.60613e-05
2.60727e-05
2.60844e-05
2.60955e-05
2.61057e-05
2.61147e-05
2.61222e-05
2.61281e-05
2.61325e-05
2.61355e-05
2.61372e-05
2.61376e-05
2.61373e-05
2.6137e-05
2.61381e-05
2.61446e-05
2.61629e-05
2.6e-05
2.6e-05
2.6e-05
2.6e-05
2.6e-05
2.6e-05
2.6e-05
2.6e-05
2.6e-05
2.6e-05
2.6e-05
2.6e-05
2.6e-05
2.6e-05
2.6e-05
2.6e-05
2.6e-05
2.60001e-05
2.60002e-05
2.60004e-05
2.60006e-05
2.6001e-05
2.60018e-05
2.6003e-05
2.60054e-05
2.60093e-05
2.6015e-05
2.60221e-05
2.60309e-05
2.60409e-05
2.60516e-05
2.6063e-05
2.60744e-05
2.60859e-05
2.60966e-05
2.61063e-05
2.61146e-05
2.61214e-05
2.61265e-05
2.613e-05
2.61322e-05
2.61329e-05
2.61323e-05
2.61312e-05
2.61304e-05
2.6131e-05
2.6139e-05
2.61624e-05
2.6e-05
2.6e-05
2.6e-05
2.6e-05
2.6e-05
2.6e-05
2.6e-05
2.6e-05
2.6e-05
2.6e-05
2.6e-05
2.6e-05
2.6e-05
2.6e-05
2.6e-05
2.6e-05
2.60001e-05
2.60001e-05
2.60002e-05
2.60004e-05
2.60006e-05
2.60011e-05
2.60019e-05
2.60032e-05
2.60057e-05
2.60099e-05
2.60158e-05
2.60233e-05
2.60325e-05
2.60427e-05
2.60537e-05
2.60652e-05
2.60766e-05
2.60878e-05
2.60981e-05
2.61071e-05
2.61146e-05
2.61205e-05
2.61246e-05
2.61272e-05
2.61284e-05
2.61281e-05
2.61266e-05
2.61244e-05
2.61234e-05
2.61239e-05
2.61335e-05
2.61613e-05
2.6e-05
2.6e-05
2.6e-05
2.6e-05
2.6e-05
2.6e-05
2.6e-05
2.6e-05
2.6e-05
2.6e-05
2.6e-05
2.6e-05
2.6e-05
2.6e-05
2.6e-05
2.6e-05
2.60001e-05
2.60001e-05
2.60002e-05
2.60004e-05
2.60007e-05
2.60012e-05
2.6002e-05
2.60034e-05
2.6006e-05
2.60103e-05
2.60165e-05
2.60242e-05
2.60336e-05
2.60441e-05
2.60552e-05
2.60668e-05
2.6078e-05
2.60888e-05
2.60985e-05
2.61069e-05
2.61137e-05
2.61187e-05
2.6122e-05
2.61238e-05
2.61241e-05
2.61226e-05
2.61202e-05
2.61173e-05
2.61158e-05
2.61168e-05
2.61272e-05
2.61612e-05
2.6e-05
2.6e-05
2.6e-05
2.6e-05
2.6e-05
2.6e-05
2.6e-05
2.6e-05
2.6e-05
2.6e-05
2.6e-05
2.6e-05
2.6e-05
2.6e-05
2.6e-05
2.6e-05
2.60001e-05
2.60001e-05
2.60002e-05
2.60004e-05
2.60007e-05
2.60013e-05
2.60021e-05
2.60036e-05
2.60063e-05
2.60109e-05
2.60172e-05
2.60253e-05
2.6035e-05
2.60456e-05
2.60568e-05
2.60684e-05
2.60793e-05
2.60897e-05
2.60988e-05
2.61065e-05
2.61124e-05
2.61165e-05
2.6119e-05
2.61199e-05
2.61192e-05
2.61169e-05
2.61132e-05
2.61099e-05
2.61077e-05
2.61098e-05
2.61206e-05
2.61601e-05
2.6e-05
2.6e-05
2.6e-05
2.6e-05
2.6e-05
2.6e-05
2.6e-05
2.6e-05
2.6e-05
2.6e-05
2.6e-05
2.6e-05
2.6e-05
2.6e-05
2.6e-05
2.6e-05
2.60001e-05
2.60001e-05
2.60003e-05
2.60005e-05
2.60008e-05
2.60013e-05
2.60023e-05
2.60038e-05
2.60066e-05
2.60113e-05
2.6018e-05
2.60262e-05
2.60361e-05
2.60468e-05
2.60581e-05
2.60694e-05
2.608e-05
2.609e-05
2.60984e-05
2.61053e-05
2.61105e-05
2.61138e-05
2.61154e-05
2.61155e-05
2.61137e-05
2.61105e-05
2.61059e-05
2.61019e-05
2.60993e-05
2.61018e-05
2.61135e-05
2.61597e-05
2.6e-05
2.6e-05
2.6e-05
2.6e-05
2.6e-05
2.6e-05
2.6e-05
2.6e-05
2.6e-05
2.6e-05
2.6e-05
2.6e-05
2.6e-05
2.6e-05
2.6e-05
2.6e-05
2.60001e-05
2.60001e-05
2.60003e-05
2.60005e-05
2.60008e-05
2.60014e-05
2.60024e-05
2.6004e-05
2.60069e-05
2.60118e-05
2.60186e-05
2.60271e-05
2.60372e-05
2.60479e-05
2.60592e-05
2.60703e-05
2.60805e-05
2.60898e-05
2.60976e-05
2.61037e-05
2.61081e-05
2.61105e-05
2.61114e-05
2.61106e-05
2.6108e-05
2.61036e-05
2.60982e-05
2.60935e-05
2.60908e-05
2.60932e-05
2.61071e-05
2.61588e-05
2.6e-05
2.6e-05
2.6e-05
2.6e-05
2.6e-05
2.6e-05
2.6e-05
2.6e-05
2.6e-05
2.6e-05
2.6e-05
2.6e-05
2.6e-05
2.6e-05
2.6e-05
2.6e-05
2.60001e-05
2.60002e-05
2.60003e-05
2.60005e-05
2.60009e-05
2.60015e-05
2.60025e-05
2.60042e-05
2.60072e-05
2.60123e-05
2.60193e-05
2.60279e-05
2.6038e-05
2.60488e-05
2.60599e-05
2.60707e-05
2.60805e-05
2.60892e-05
2.60962e-05
2.61016e-05
2.61051e-05
2.61069e-05
2.61069e-05
2.61053e-05
2.61015e-05
2.60965e-05
2.609e-05
2.6085e-05
2.60819e-05
2.60842e-05
2.61002e-05
2.61582e-05
2.6e-05
2.6e-05
2.6e-05
2.6e-05
2.6e-05
2.6e-05
2.6e-05
2.6e-05
2.6e-05
2.6e-05
2.6e-05
2.6e-05
2.6e-05
2.6e-05
2.6e-05
2.6e-05
2.60001e-05
2.60002e-05
2.60003e-05
2.60006e-05
2.6001e-05
2.60016e-05
2.60026e-05
2.60044e-05
2.60075e-05
2.60127e-05
2.60198e-05
2.60286e-05
2.60388e-05
2.60494e-05
2.60604e-05
2.60708e-05
2.608e-05
2.6088e-05
2.60943e-05
2.6099e-05
2.61017e-05
2.61027e-05
2.61021e-05
2.60994e-05
2.60949e-05
2.60886e-05
2.6082e-05
2.6076e-05
2.60734e-05
2.6074e-05
2.60951e-05
2.61572e-05
2.6e-05
2.6e-05
2.6e-05
2.6e-05
2.6e-05
2.6e-05
2.6e-05
2.6e-05
2.6e-05
2.6e-05
2.6e-05
2.6e-05
2.6e-05
2.6e-05
2.6e-05
2.6e-05
2.60001e-05
2.60002e-05
2.60003e-05
2.60006e-05
2.6001e-05
2.60017e-05
2.60027e-05
2.60045e-05
2.60078e-05
2.60131e-05
2.60204e-05
2.60292e-05
2.60393e-05
2.60498e-05
2.60605e-05
2.60705e-05
2.60791e-05
2.60864e-05
2.6092e-05
2.60959e-05
2.60979e-05
2.60982e-05
2.60967e-05
2.60932e-05
2.60878e-05
2.60807e-05
2.60735e-05
2.60675e-05
2.60644e-05
2.60652e-05
2.60892e-05
2.61559e-05
2.6e-05
2.6e-05
2.6e-05
2.6e-05
2.6e-05
2.6e-05
2.6e-05
2.6e-05
2.6e-05
2.6e-05
2.6e-05
2.6e-05
2.6e-05
2.6e-05
2.6e-05
2.6e-05
2.60001e-05
2.60002e-05
2.60004e-05
2.60006e-05
2.60011e-05
2.60018e-05
2.60028e-05
2.60047e-05
2.60079e-05
2.60134e-05
2.60207e-05
2.60296e-05
2.60396e-05
2.60499e-05
2.60602e-05
2.60697e-05
2.60777e-05
2.60842e-05
2.60891e-05
2.60922e-05
2.60935e-05
2.60931e-05
2.60909e-05
2.60866e-05
2.60802e-05
2.60727e-05
2.60649e-05
2.60589e-05
2.60551e-05
2.60568e-05
2.60827e-05
2.61537e-05
2.6e-05
2.6e-05
2.6e-05
2.6e-05
2.6e-05
2.6e-05
2.6e-05
2.6e-05
2.6e-05
2.6e-05
2.6e-05
2.6e-05
2.6e-05
2.6e-05
2.6e-05
2.6e-05
2.60001e-05
2.60002e-05
2.60004e-05
2.60007e-05
2.60011e-05
2.60018e-05
2.60029e-05
2.60048e-05
2.60081e-05
2.60136e-05
2.60211e-05
2.60298e-05
2.60397e-05
2.60497e-05
2.60595e-05
2.60684e-05
2.60758e-05
2.60817e-05
2.60858e-05
2.60882e-05
2.60888e-05
2.60877e-05
2.60848e-05
2.60793e-05
2.60726e-05
2.60642e-05
2.60566e-05
2.60506e-05
2.60491e-05
2.60498e-05
2.60748e-05
2.61515e-05
2.6e-05
2.6e-05
2.6e-05
2.6e-05
2.6e-05
2.6e-05
2.6e-05
2.6e-05
2.6e-05
2.6e-05
2.6e-05
2.6e-05
2.6e-05
2.6e-05
2.6e-05
2.6e-05
2.60001e-05
2.60002e-05
2.60004e-05
2.60007e-05
2.60012e-05
2.60019e-05
2.6003e-05
2.6005e-05
2.60082e-05
2.60138e-05
2.60211e-05
2.60299e-05
2.60395e-05
2.60491e-05
2.60585e-05
2.60667e-05
2.60734e-05
2.60785e-05
2.6082e-05
2.60836e-05
2.60836e-05
2.60819e-05
2.60781e-05
2.60722e-05
2.60644e-05
2.60565e-05
2.60482e-05
2.60447e-05
2.60419e-05
2.60478e-05
2.60637e-05
2.61487e-05
2.6e-05
2.6e-05
2.6e-05
2.6e-05
2.6e-05
2.6e-05
2.6e-05
2.6e-05
2.6e-05
2.6e-05
2.6e-05
2.6e-05
2.6e-05
2.6e-05
2.6e-05
2.6e-05
2.60001e-05
2.60002e-05
2.60004e-05
2.60007e-05
2.60012e-05
2.6002e-05
2.60031e-05
2.6005e-05
2.60084e-05
2.60138e-05
2.60212e-05
2.60297e-05
2.60391e-05
2.60482e-05
2.6057e-05
2.60646e-05
2.60706e-05
2.6075e-05
2.60778e-05
2.60788e-05
2.60782e-05
2.60758e-05
2.60712e-05
2.60647e-05
2.60566e-05
2.60485e-05
2.60421e-05
2.60394e-05
2.60391e-05
2.60424e-05
2.60509e-05
2.61474e-05
2.6e-05
2.6e-05
2.6e-05
2.6e-05
2.6e-05
2.6e-05
2.6e-05
2.6e-05
2.6e-05
2.6e-05
2.6e-05
2.6e-05
2.6e-05
2.6e-05
2.6e-05
2.6e-05
2.60001e-05
2.60002e-05
2.60005e-05
2.60007e-05
2.60013e-05
2.6002e-05
2.60032e-05
2.60051e-05
2.60083e-05
2.60137e-05
2.60209e-05
2.60293e-05
2.60383e-05
2.60469e-05
2.6055e-05
2.60619e-05
2.60672e-05
2.6071e-05
2.60731e-05
2.60734e-05
2.60723e-05
2.60693e-05
2.60642e-05
2.60571e-05
2.60492e-05
2.60413e-05
2.60371e-05
2.60372e-05
2.60362e-05
2.60406e-05
2.60432e-05
2.61459e-05
2.6e-05
2.6e-05
2.6e-05
2.6e-05
2.6e-05
2.6e-05
2.6e-05
2.6e-05
2.6e-05
2.6e-05
2.6e-05
2.6e-05
2.6e-05
2.6e-05
2.6e-05
2.6e-05
2.60001e-05
2.60002e-05
2.60005e-05
2.60008e-05
2.60013e-05
2.60021e-05
2.60033e-05
2.60052e-05
2.60084e-05
2.60135e-05
2.60205e-05
2.60286e-05
2.60372e-05
2.60452e-05
2.60528e-05
2.6059e-05
2.60636e-05
2.60667e-05
2.60681e-05
2.60679e-05
2.60661e-05
2.60627e-05
2.60567e-05
2.60499e-05
2.60418e-05
2.60367e-05
2.6034e-05
2.60352e-05
2.60361e-05
2.60376e-05
2.60342e-05
2.61455e-05
2.6e-05
2.6e-05
2.6e-05
2.6e-05
2.6e-05
2.6e-05
2.6e-05
2.6e-05
2.6e-05
2.6e-05
2.6e-05
2.6e-05
2.6e-05
2.6e-05
2.6e-05
2.6e-05
2.60001e-05
2.60003e-05
2.60005e-05
2.60008e-05
2.60013e-05
2.60021e-05
2.60033e-05
2.60052e-05
2.60083e-05
2.60132e-05
2.60198e-05
2.60275e-05
2.60356e-05
2.60431e-05
2.60499e-05
2.60553e-05
2.60593e-05
2.60618e-05
2.60626e-05
2.60619e-05
2.60597e-05
2.60554e-05
2.60496e-05
2.60421e-05
2.60359e-05
2.60317e-05
2.60337e-05
2.60355e-05
2.60394e-05
2.60358e-05
2.60354e-05
2.61422e-05
2.6e-05
2.6e-05
2.6e-05
2.6e-05
2.6e-05
2.6e-05
2.6e-05
2.6e-05
2.6e-05
2.6e-05
2.6e-05
2.6e-05
2.6e-05
2.6e-05
2.6e-05
2.6e-05
2.60001e-05
2.60003e-05
2.60005e-05
2.60008e-05
2.60014e-05
2.60022e-05
2.60033e-05
2.60052e-05
2.60082e-05
2.60129e-05
2.6019e-05
2.60262e-05
2.60338e-05
2.60406e-05
2.60468e-05
2.60516e-05
2.60549e-05
2.60568e-05
2.6057e-05
2.60557e-05
2.60529e-05
2.60482e-05
2.6042e-05
2.60352e-05
2.60309e-05
2.60307e-05
2.60344e-05
2.60407e-05
2.60446e-05
2.60423e-05
2.60385e-05
2.61374e-05
2.6e-05
2.6e-05
2.6e-05
2.6e-05
2.6e-05
2.6e-05
2.6e-05
2.6e-05
2.6e-05
2.6e-05
2.6e-05
2.6e-05
2.6e-05
2.6e-05
2.6e-05
2.6e-05
2.60001e-05
2.60003e-05
2.60005e-05
2.60008e-05
2.60014e-05
2.60022e-05
2.60033e-05
2.60051e-05
2.60079e-05
2.60124e-05
2.6018e-05
2.60245e-05
2.60314e-05
2.60376e-05
2.6043e-05
2.60471e-05
2.60499e-05
2.60512e-05
2.60509e-05
2.60492e-05
2.60458e-05
2.60408e-05
2.60345e-05
2.60295e-05
2.60273e-05
2.60307e-05
2.60392e-05
2.60473e-05
2.60522e-05
2.60451e-05
2.6043e-05
2.61294e-05
2.6e-05
2.6e-05
2.6e-05
2.6e-05
2.6e-05
2.6e-05
2.6e-05
2.6e-05
2.6e-05
2.6e-05
2.6e-05
2.6e-05
2.6e-05
2.6e-05
2.6e-05
2.6e-05
2.60001e-05
2.60003e-05
2.60005e-05
2.60009e-05
2.60014e-05
2.60022e-05
2.60033e-05
2.6005e-05
2.60077e-05
2.60118e-05
2.6017e-05
2.60227e-05
2.60288e-05
2.60343e-05
2.60391e-05
2.60426e-05
2.60448e-05
2.60456e-05
2.60448e-05
2.60425e-05
2.60388e-05
2.60332e-05
2.60278e-05
2.6025e-05
2.60265e-05
2.60344e-05
2.60463e-05
2.60577e-05
2.60658e-05
2.60489e-05
2.60455e-05
2.61334e-05
2.6e-05
2.6e-05
2.6e-05
2.6e-05
2.6e-05
2.6e-05
2.6e-05
2.6e-05
2.6e-05
2.6e-05
2.6e-05
2.6e-05
2.6e-05
2.6e-05
2.6e-05
2.60001e-05
2.60001e-05
2.60003e-05
2.60005e-05
2.60008e-05
2.60014e-05
2.60022e-05
2.60033e-05
2.60049e-05
2.60073e-05
2.60112e-05
2.60157e-05
2.60207e-05
2.60259e-05
2.60305e-05
2.60345e-05
2.60374e-05
2.60392e-05
2.60395e-05
2.60383e-05
2.60356e-05
2.60314e-05
2.60265e-05
2.60229e-05
2.60232e-05
2.60275e-05
2.60428e-05
2.60561e-05
2.6075e-05
2.60805e-05
2.60564e-05
2.60661e-05
2.6112e-05
2.6e-05
2.6e-05
2.6e-05
2.6e-05
2.6e-05
2.6e-05
2.6e-05
2.6e-05
2.6e-05
2.6e-05
2.6e-05
2.6e-05
2.6e-05
2.6e-05
2.6e-05
2.6e-05
2.60001e-05
2.60003e-05
2.60005e-05
2.60009e-05
2.60014e-05
2.60021e-05
2.60032e-05
2.60047e-05
2.6007e-05
2.60104e-05
2.60145e-05
2.60187e-05
2.60231e-05
2.60268e-05
2.60301e-05
2.60324e-05
2.60337e-05
2.60336e-05
2.6032e-05
2.60289e-05
2.60246e-05
2.60208e-05
2.60193e-05
2.6023e-05
2.60332e-05
2.60528e-05
2.607e-05
2.60908e-05
2.60898e-05
2.6075e-05
2.60341e-05
2.61486e-05
2.6e-05
2.6e-05
2.6e-05
2.6e-05
2.6e-05
2.6e-05
2.6e-05
2.6e-05
2.6e-05
2.6e-05
2.6e-05
2.60001e-05
2.60001e-05
2.6e-05
2.6e-05
2.60001e-05
2.60001e-05
2.60003e-05
2.60005e-05
2.60008e-05
2.60014e-05
2.60021e-05
2.60031e-05
2.60045e-05
2.60065e-05
2.60095e-05
2.6013e-05
2.60165e-05
2.602e-05
2.60229e-05
2.60252e-05
2.60269e-05
2.60277e-05
2.60274e-05
2.60256e-05
2.60223e-05
2.60187e-05
2.6017e-05
2.60183e-05
2.60263e-05
2.60404e-05
2.60666e-05
2.60848e-05
2.6107e-05
2.61073e-05
2.60877e-05
2.60892e-05
2.61185e-05
2.6e-05
2.6e-05
2.6e-05
2.6e-05
2.6e-05
2.6e-05
2.6e-05
2.6e-05
2.6e-05
2.6e-05
2.6e-05
2.60001e-05
2.60001e-05
2.60001e-05
2.6e-05
2.6e-05
2.60001e-05
2.60003e-05
2.60005e-05
2.60008e-05
2.60014e-05
2.6002e-05
2.6003e-05
2.60042e-05
2.60061e-05
2.60087e-05
2.60116e-05
2.60145e-05
2.60173e-05
2.60195e-05
2.60209e-05
2.60219e-05
2.60223e-05
2.60218e-05
2.60197e-05
2.60167e-05
2.60147e-05
2.60154e-05
2.60195e-05
2.60322e-05
2.60524e-05
2.60769e-05
2.61011e-05
2.61173e-05
2.61165e-05
2.61159e-05
2.60627e-05
2.6171e-05
2.6e-05
2.6e-05
2.6e-05
2.6e-05
2.6e-05
2.6e-05
2.6e-05
2.6e-05
2.6e-05
2.6e-05
2.60001e-05
2.60001e-05
2.60001e-05
2.6e-05
2.6e-05
2.60001e-05
2.60001e-05
2.60003e-05
2.60005e-05
2.60008e-05
2.60013e-05
2.6002e-05
2.60029e-05
2.60039e-05
2.60055e-05
2.60077e-05
2.60099e-05
2.60121e-05
2.60143e-05
2.60159e-05
2.60166e-05
2.60169e-05
2.60169e-05
2.60162e-05
2.60145e-05
2.60127e-05
2.60128e-05
2.60156e-05
2.60253e-05
2.60402e-05
2.60648e-05
2.60877e-05
2.61167e-05
2.61261e-05
2.61407e-05
2.61202e-05
2.61052e-05
2.61482e-05
2.6e-05
2.6e-05
2.6e-05
2.6e-05
2.6e-05
2.6e-05
2.6e-05
2.6e-05
2.6e-05
2.6e-05
2.60001e-05
2.60001e-05
2.60001e-05
2.60001e-05
2.6e-05
2.6e-05
2.60001e-05
2.60003e-05
2.60005e-05
2.60008e-05
2.60013e-05
2.60019e-05
2.60027e-05
2.60036e-05
2.6005e-05
2.60067e-05
2.60085e-05
2.601e-05
2.60115e-05
2.60127e-05
2.6013e-05
2.60129e-05
2.60126e-05
2.60118e-05
2.60108e-05
2.60104e-05
2.60132e-05
2.60194e-05
2.60322e-05
2.60505e-05
2.60767e-05
2.60967e-05
2.61278e-05
2.61365e-05
2.61454e-05
2.61371e-05
2.61003e-05
2.61746e-05
2.60001e-05
2.6e-05
2.6e-05
2.6e-05
2.6e-05
2.6e-05
2.6e-05
2.6e-05
2.6e-05
2.6e-05
2.60001e-05
2.60001e-05
2.60001e-05
2.60001e-05
2.6e-05
2.6e-05
2.60001e-05
2.60003e-05
2.60005e-05
2.60008e-05
2.60012e-05
2.60018e-05
2.60025e-05
2.60033e-05
2.60043e-05
2.60057e-05
2.60068e-05
2.60078e-05
2.60086e-05
2.60092e-05
2.60093e-05
2.60091e-05
2.60091e-05
2.60087e-05
2.60084e-05
2.60103e-05
2.6016e-05
2.60256e-05
2.60416e-05
2.60601e-05
2.60852e-05
2.61079e-05
2.61393e-05
2.61478e-05
2.61606e-05
2.61429e-05
2.61185e-05
2.61577e-05
2.6e-05
2.6e-05
2.6e-05
2.6e-05
2.6e-05
2.6e-05
2.6e-05
2.6e-05
2.6e-05
2.6e-05
2.60001e-05
2.60001e-05
2.60001e-05
2.60001e-05
2.6e-05
2.60001e-05
2.60001e-05
2.60002e-05
2.60005e-05
2.60007e-05
2.60012e-05
2.60016e-05
2.60023e-05
2.60029e-05
2.60038e-05
2.60047e-05
2.60055e-05
2.6006e-05
2.60063e-05
2.60067e-05
2.60068e-05
2.6007e-05
2.60071e-05
2.6007e-05
2.60081e-05
2.60121e-05
2.60217e-05
2.60335e-05
2.60506e-05
2.60675e-05
2.60957e-05
2.61153e-05
2.61505e-05
2.6155e-05
2.61625e-05
2.61629e-05
2.6134e-05
2.61833e-05
2.60001e-05
2.6e-05
2.6e-05
2.6e-05
2.6e-05
2.6e-05
2.6e-05
2.6e-05
2.6e-05
2.60001e-05
2.60001e-05
2.60001e-05
2.60001e-05
2.60001e-05
2.6e-05
2.6e-05
2.60001e-05
2.60002e-05
2.60004e-05
2.60007e-05
2.6001e-05
2.60015e-05
2.60021e-05
2.60025e-05
2.60031e-05
2.60037e-05
2.60039e-05
2.60041e-05
2.60042e-05
2.60047e-05
2.60049e-05
2.60054e-05
2.60062e-05
2.60068e-05
2.60091e-05
2.60166e-05
2.60284e-05
2.60415e-05
2.60583e-05
2.60772e-05
2.61041e-05
2.61275e-05
2.61584e-05
2.61622e-05
2.61877e-05
2.61256e-05
2.61265e-05
2.61214e-05
2.6e-05
2.6e-05
2.6e-05
2.6e-05
2.6e-05
2.6e-05
2.6e-05
2.6e-05
2.6e-05
2.6e-05
2.60001e-05
2.60001e-05
2.60001e-05
2.60001e-05
2.6e-05
2.60001e-05
2.60001e-05
2.60002e-05
2.60004e-05
2.60006e-05
2.6001e-05
2.60014e-05
2.60018e-05
2.60022e-05
2.60026e-05
2.60028e-05
2.60029e-05
2.6003e-05
2.60034e-05
2.6004e-05
2.60046e-05
2.60056e-05
2.6007e-05
2.60083e-05
2.60125e-05
2.60217e-05
2.60357e-05
2.60484e-05
2.60659e-05
2.60843e-05
2.6113e-05
2.6133e-05
2.61699e-05
2.61791e-05
2.61676e-05
2.62068e-05
2.61314e-05
2.62216e-05
2.60001e-05
2.6e-05
2.6e-05
2.6e-05
2.6e-05
2.6e-05
2.6e-05
2.6e-05
2.6e-05
2.60001e-05
2.60001e-05
2.60001e-05
2.60001e-05
2.60001e-05
2.60001e-05
2.6e-05
2.60001e-05
2.60002e-05
2.60003e-05
2.60006e-05
2.60009e-05
2.60012e-05
2.60016e-05
2.60017e-05
2.60019e-05
2.60019e-05
2.60018e-05
2.60022e-05
2.60028e-05
2.60037e-05
2.60047e-05
2.60066e-05
2.60089e-05
2.60111e-05
2.60161e-05
2.60274e-05
2.60418e-05
2.60547e-05
2.60732e-05
2.6092e-05
2.61207e-05
2.61431e-05
2.61761e-05
2.61666e-05
2.62169e-05
2.60792e-05
2.61358e-05
2.60611e-05
2.6e-05
2.6e-05
2.6e-05
2.6e-05
2.6e-05
2.6e-05
2.6e-05
2.6e-05
2.6e-05
2.60001e-05
2.60001e-05
2.60001e-05
2.60001e-05
2.60001e-05
2.60001e-05
2.60001e-05
2.6e-05
2.60002e-05
2.60003e-05
2.60005e-05
2.60008e-05
2.6001e-05
2.60013e-05
2.60014e-05
2.60014e-05
2.60014e-05
2.60016e-05
2.60023e-05
2.60033e-05
2.60047e-05
2.60062e-05
2.60085e-05
2.60116e-05
2.60145e-05
2.60203e-05
2.60317e-05
2.6047e-05
2.60607e-05
2.608e-05
2.60973e-05
2.61284e-05
2.61458e-05
2.61855e-05
2.61956e-05
2.61799e-05
2.62477e-05
2.61031e-05
2.62552e-05
2.60001e-05
2.6e-05
2.6e-05
2.6e-05
2.6e-05
2.6e-05
2.6e-05
2.6e-05
2.6e-05
2.60001e-05
2.60001e-05
2.60001e-05
2.60001e-05
2.60001e-05
2.60001e-05
2.6e-05
2.60001e-05
2.60001e-05
2.60003e-05
2.60005e-05
2.60007e-05
2.60009e-05
2.60011e-05
2.6001e-05
2.60009e-05
2.60009e-05
2.60014e-05
2.60024e-05
2.60038e-05
2.60055e-05
2.60076e-05
2.60104e-05
2.60139e-05
2.60171e-05
2.6023e-05
2.60353e-05
2.60523e-05
2.60657e-05
2.60856e-05
2.61036e-05
2.61349e-05
2.61532e-05
2.61931e-05
2.61669e-05
2.62375e-05
2.60559e-05
2.61167e-05
2.60473e-05
2.6e-05
2.6e-05
2.6e-05
2.6e-05
2.6e-05
2.6e-05
2.6e-05
2.6e-05
2.6e-05
2.60001e-05
2.60001e-05
2.60001e-05
2.60001e-05
2.60001e-05
2.60001e-05
2.60001e-05
2.6e-05
2.60001e-05
2.60002e-05
2.60004e-05
2.60006e-05
2.60007e-05
2.60008e-05
2.60007e-05
2.60007e-05
2.6001e-05
2.60018e-05
2.60033e-05
2.6005e-05
2.6007e-05
2.60091e-05
2.60118e-05
2.60154e-05
2.60186e-05
2.6025e-05
2.60385e-05
2.60562e-05
2.607e-05
2.60907e-05
2.61066e-05
2.61401e-05
2.61529e-05
2.61982e-05
2.62007e-05
2.61937e-05
2.62763e-05
2.60688e-05
2.62405e-05
2.60001e-05
2.6e-05
2.6e-05
2.6e-05
2.6e-05
2.6e-05
2.6e-05
2.6e-05
2.60001e-05
2.60001e-05
2.60001e-05
2.60001e-05
2.60001e-05
2.60001e-05
2.60001e-05
2.6e-05
2.60001e-05
2.60001e-05
2.60002e-05
2.60003e-05
2.60004e-05
2.60005e-05
2.60006e-05
2.60004e-05
2.60005e-05
2.6001e-05
2.60021e-05
2.60037e-05
2.60056e-05
2.60075e-05
2.60095e-05
2.60121e-05
2.60155e-05
2.60189e-05
2.60261e-05
2.6041e-05
2.60592e-05
2.60738e-05
2.60937e-05
2.61129e-05
2.61434e-05
2.6163e-05
2.62015e-05
2.61765e-05
2.62292e-05
2.60503e-05
2.60793e-05
2.60608e-05
2.6e-05
2.6e-05
2.6e-05
2.6e-05
2.6e-05
2.6e-05
2.6e-05
2.6e-05
2.6e-05
2.60001e-05
2.60001e-05
2.60001e-05
2.60001e-05
2.60001e-05
2.60001e-05
2.60001e-05
2.6e-05
2.60001e-05
2.60002e-05
2.60003e-05
2.60004e-05
2.60004e-05
2.60004e-05
2.60004e-05
2.60008e-05
2.60015e-05
2.60027e-05
2.60044e-05
2.60062e-05
2.6008e-05
2.60098e-05
2.60121e-05
2.60153e-05
2.60189e-05
2.60264e-05
2.60416e-05
2.60611e-05
2.60758e-05
2.6096e-05
2.61138e-05
2.6145e-05
2.6163e-05
2.6201e-05
2.6208e-05
2.61983e-05
2.62365e-05
2.60715e-05
2.62311e-05
2.60001e-05
2.6e-05
2.6e-05
2.6e-05
2.6e-05
2.6e-05
2.6e-05
2.6e-05
2.60001e-05
2.60001e-05
2.60001e-05
2.60001e-05
2.60001e-05
2.60001e-05
2.60001e-05
2.6e-05
2.60001e-05
2.60001e-05
2.60001e-05
2.60002e-05
2.60002e-05
2.60003e-05
2.60002e-05
2.60005e-05
2.60009e-05
2.60017e-05
2.60029e-05
2.60044e-05
2.60059e-05
2.60076e-05
2.60094e-05
2.60113e-05
2.60142e-05
2.60174e-05
2.60251e-05
2.6042e-05
2.60611e-05
2.60773e-05
2.60952e-05
2.61167e-05
2.61416e-05
2.6168e-05
2.61915e-05
2.61936e-05
2.61958e-05
2.60857e-05
2.60541e-05
2.61249e-05
2.6e-05
2.6e-05
2.6e-05
2.6e-05
2.6e-05
2.6e-05
2.6e-05
2.6e-05
2.60001e-05
2.60001e-05
2.60001e-05
2.60001e-05
2.60001e-05
2.60001e-05
2.60001e-05
2.60001e-05
2.6e-05
2.60001e-05
2.60001e-05
2.60002e-05
2.60002e-05
2.60002e-05
2.60003e-05
2.60008e-05
2.60013e-05
2.60021e-05
2.60032e-05
2.60045e-05
2.60058e-05
2.60074e-05
2.60089e-05
2.60105e-05
2.60125e-05
2.60154e-05
2.6023e-05
2.60397e-05
2.606e-05
2.60763e-05
2.60938e-05
2.61139e-05
2.6138e-05
2.61621e-05
2.61835e-05
2.61983e-05
2.61783e-05
2.61747e-05
2.60813e-05
2.61916e-05
2.60001e-05
2.6e-05
2.6e-05
2.6e-05
2.6e-05
2.6e-05
2.6e-05
2.6e-05
2.60001e-05
2.60001e-05
2.60001e-05
2.60001e-05
2.60001e-05
2.60001e-05
2.60001e-05
2.6e-05
2.60001e-05
2.60001e-05
2.60001e-05
2.60001e-05
2.60001e-05
2.60002e-05
2.60004e-05
2.6001e-05
2.60015e-05
2.60021e-05
2.6003e-05
2.60039e-05
2.6005e-05
2.60062e-05
2.60075e-05
2.60089e-05
2.60106e-05
2.60126e-05
2.60194e-05
2.60366e-05
2.60567e-05
2.60741e-05
2.60901e-05
2.61114e-05
2.61316e-05
2.61576e-05
2.61742e-05
2.61823e-05
2.61702e-05
2.61079e-05
2.60566e-05
2.61498e-05
2.6e-05
2.6e-05
2.6e-05
2.6e-05
2.6e-05
2.6e-05
2.6e-05
2.6e-05
2.60001e-05
2.60001e-05
2.60001e-05
2.60001e-05
2.60001e-05
2.60001e-05
2.60001e-05
2.60001e-05
2.60001e-05
2.60001e-05
2.60001e-05
2.60001e-05
2.60002e-05
2.60003e-05
2.60006e-05
2.60014e-05
2.60018e-05
2.60023e-05
2.60029e-05
2.60037e-05
2.60044e-05
2.60053e-05
2.60064e-05
2.60076e-05
2.60085e-05
2.60097e-05
2.60153e-05
2.60312e-05
2.60516e-05
2.60697e-05
2.60844e-05
2.61054e-05
2.61212e-05
2.61495e-05
2.61533e-05
2.61788e-05
2.61339e-05
2.61264e-05
2.60892e-05
2.61509e-05
2.60001e-05
2.60001e-05
2.6e-05
2.6e-05
2.6e-05
2.6e-05
2.6e-05
2.60001e-05
2.60001e-05
2.60001e-05
2.60001e-05
2.60001e-05
2.60001e-05
2.60001e-05
2.60001e-05
2.60001e-05
2.60001e-05
2.60001e-05
2.60001e-05
2.60001e-05
2.60002e-05
2.60005e-05
2.60008e-05
2.60015e-05
2.60018e-05
2.60021e-05
2.60025e-05
2.60028e-05
2.60032e-05
2.60039e-05
2.60048e-05
2.60056e-05
2.60066e-05
2.6007e-05
2.60108e-05
2.60249e-05
2.60448e-05
2.60635e-05
2.60774e-05
2.60972e-05
2.6111e-05
2.6135e-05
2.61413e-05
2.61547e-05
2.61331e-05
2.61002e-05
2.60591e-05
2.61282e-05
2.6e-05
2.6e-05
2.6e-05
2.6e-05
2.6e-05
2.6e-05
2.6e-05
2.6e-05
2.60001e-05
2.60001e-05
2.60001e-05
2.60001e-05
2.60001e-05
2.60001e-05
2.60001e-05
2.60001e-05
2.60001e-05
2.60001e-05
2.60001e-05
2.60002e-05
2.60004e-05
2.60006e-05
2.6001e-05
2.60017e-05
2.6002e-05
2.60021e-05
2.60022e-05
2.60023e-05
2.60027e-05
2.60034e-05
2.60041e-05
2.60046e-05
2.60052e-05
2.60054e-05
2.60073e-05
2.6018e-05
2.60366e-05
2.60557e-05
2.60685e-05
2.60874e-05
2.60972e-05
2.61222e-05
2.61169e-05
2.61411e-05
2.60913e-05
2.60813e-05
2.60654e-05
2.61094e-05
2.60001e-05
2.60001e-05
2.6e-05
2.6e-05
2.6e-05
2.6e-05
2.6e-05
2.60001e-05
2.60001e-05
2.60001e-05
2.60001e-05
2.60001e-05
2.60001e-05
2.60001e-05
2.60001e-05
2.60001e-05
2.60001e-05
2.60001e-05
2.60001e-05
2.60002e-05
2.60004e-05
2.60007e-05
2.60011e-05
2.60018e-05
2.60019e-05
2.60018e-05
2.60016e-05
2.60016e-05
2.60023e-05
2.60034e-05
2.60043e-05
2.60047e-05
2.60052e-05
2.60049e-05
2.60057e-05
2.6012e-05
2.6028e-05
2.60469e-05
2.60598e-05
2.60765e-05
2.60861e-05
2.61043e-05
2.61052e-05
2.61167e-05
2.6096e-05
2.60797e-05
2.60602e-05
2.60703e-05
2.6e-05
2.6e-05
2.6e-05
2.6e-05
2.6e-05
2.6e-05
2.6e-05
2.60001e-05
2.60001e-05
2.60001e-05
2.60001e-05
2.60001e-05
2.60001e-05
2.60001e-05
2.60001e-05
2.60001e-05
2.60001e-05
2.60002e-05
2.60002e-05
2.60003e-05
2.60005e-05
2.60008e-05
2.60013e-05
2.6002e-05
2.6002e-05
2.60017e-05
2.60013e-05
2.60018e-05
2.60032e-05
2.60049e-05
2.60062e-05
2.60068e-05
2.60066e-05
2.60065e-05
2.60063e-05
2.60083e-05
2.60201e-05
2.60384e-05
2.6051e-05
2.60672e-05
2.60753e-05
2.60938e-05
2.60872e-05
2.61043e-05
2.60662e-05
2.60567e-05
2.60456e-05
2.60822e-05
2.60001e-05
2.60001e-05
2.6e-05
2.6e-05
2.6e-05
2.60001e-05
2.60001e-05
2.60001e-05
2.60001e-05
2.60001e-05
2.60001e-05
2.60001e-05
2.60001e-05
2.60001e-05
2.60001e-05
2.60001e-05
2.60001e-05
2.60002e-05
2.60002e-05
2.60003e-05
2.60006e-05
2.60009e-05
2.60014e-05
2.60019e-05
2.60018e-05
2.60012e-05
2.60008e-05
2.60021e-05
2.60042e-05
2.60066e-05
2.60086e-05
2.60098e-05
2.60101e-05
2.6009e-05
2.60086e-05
2.60081e-05
2.6014e-05
2.60308e-05
2.60453e-05
2.606e-05
2.60727e-05
2.60845e-05
2.60908e-05
2.60942e-05
2.60908e-05
2.60739e-05
2.60536e-05
2.60183e-05
2.6e-05
2.6e-05
2.6e-05
2.6e-05
2.6e-05
2.6e-05
2.60001e-05
2.60001e-05
2.60001e-05
2.60001e-05
2.60001e-05
2.60001e-05
2.60001e-05
2.60001e-05
2.60001e-05
2.60001e-05
2.60002e-05
2.60002e-05
2.60003e-05
2.60004e-05
2.60007e-05
2.6001e-05
2.60014e-05
2.60021e-05