/*--------------------------------*- C++ -*----------------------------------*\
  =========                 |
  \\      /  F ield         | OpenFOAM: The Open Source CFD Toolbox
   \\    /   O peration     | Website:  https://openfoam.org
    \\  /    A nd           | Version:  10
     \\/     M anipulation  |
\*---------------------------------------------------------------------------*/
FoamFile
{
    format      ascii;
    class       volScalarField;
    location    "10";
    object      p;
}
// * * * * * * * * * * * * * * * * * * * * * * * * * * * * * * * * * * * * * //

dimensions      [0 2 -2 0 0 0 0];

internalField   nonuniform List<scalar> 
38016
(
2.77233
1.80586
2.21534
2.44756
2.82772
3.27673
3.89591
4.6342
5.61687
6.86165
8.3421
10.1954
12.4027
14.9629
17.8813
21.1803
24.7285
28.3911
32.2883
36.3522
40.5364
44.8911
50.9592
55.7976
64.2195
81.0569
115.047
163.052
225.645
298.577
376.664
456.435
534.736
609.253
678.281
741.007
796.951
845.954
888.051
923.596
953.114
977.145
996.444
1011.63
1023.23
1032.17
1033.47
1032.5
2.8056
1.81898
2.22721
2.45497
2.82996
3.27413
3.88711
4.61978
5.59559
6.8334
8.30812
10.1555
12.3573
14.9128
17.8248
21.1137
24.6468
28.2876
32.1516
36.1655
40.2828
44.5475
50.4833
55.1597
63.5276
80.3806
114.645
163.27
226.804
300.927
380.376
461.596
541.363
617.321
687.725
751.738
808.86
858.922
901.973
938.36
968.605
993.268
1013.08
1028.66
1040.58
1049.6
1050.65
1049.78
2.83869
1.83196
2.2389
2.46225
2.83212
3.27152
3.87838
4.60555
5.57464
6.80565
8.27484
10.1165
12.3131
14.8639
17.7698
21.0489
24.5672
28.1869
32.0191
35.9856
40.0412
44.2293
50.0571
54.6617
62.861
79.7648
114.294
163.527
227.961
303.222
383.978
466.579
547.737
625.043
696.715
761.891
820.057
871.03
914.879
951.95
982.761
1007.91
1028.1
1043.99
1056.17
1065.05
1066.67
1067.78
2.8716
1.84478
2.25047
2.46938
2.83411
3.26872
3.86945
4.59111
5.55343
6.77761
8.24123
10.0771
12.2684
14.8146
17.7141
20.9833
24.4862
28.0842
31.8835
35.8001
39.7892
43.8901
49.5777
54.0198
62.1299
79.0068
113.7
163.463
228.725
305.07
387.089
471.032
553.532
632.125
704.983
771.218
830.302
882.045
926.542
964.148
995.394
1020.91
1041.42
1057.59
1070.02
1078.95
1081.95
1086.05
2.90464
1.8577
2.26207
2.47655
2.83614
3.26598
3.86058
4.57675
5.53234
6.74973
8.20785
10.038
12.2242
14.7658
17.6593
20.9187
24.4065
27.9832
31.75
35.6172
39.5403
43.5557
49.1049
53.4051
61.312
78.1023
112.854
163.014
228.941
306.187
389.279
474.371
558.024
637.718
711.586
778.704
838.538
890.89
935.884
973.889
1005.47
1031.28
1052.07
1068.53
1081.3
1090.65
1095.66
1102.29
2.93761
1.87056
2.27368
2.48371
2.83813
3.26319
3.85166
4.56231
5.51111
6.72164
8.17416
9.99848
12.1793
14.7161
17.603
20.8522
24.3239
27.8785
31.6115
35.4274
39.2825
43.2114
48.6184
52.7845
60.4829
77.2105
112.033
162.614
229.204
307.313
391.403
477.516
562.144
642.711
717.319
785.025
845.294
897.935
943.105
981.2
1012.81
1038.65
1059.47
1076.03
1089.03
1098.97
1105.89
1114.88
2.97066
1.88348
2.28529
2.49088
2.84014
3.26042
3.84275
4.54793
5.48996
6.69367
8.14063
9.95919
12.1347
14.6669
17.5474
20.7866
24.2423
27.7753
31.4744
35.2385
39.024
42.8622
48.1121
52.1038
59.5743
76.1506
110.914
161.768
228.859
307.664
392.588
479.565
565.011
646.302
721.5
789.646
850.199
902.99
948.211
986.297
1017.89
1043.73
1064.63
1081.39
1094.79
1105.46
1114
1124.33
3.00367
1.89637
2.29693
2.49807
2.84216
3.25765
3.83387
4.53355
5.4688
6.66567
8.10705
9.9198
12.09
14.6174
17.4914
20.7205
24.1596
27.6707
31.3353
35.047
38.7623
42.5112
47.6083
51.4559
58.6558
75.0931
109.787
160.893
228.427
307.834
393.464
481.139
567.206
648.994
724.541
792.878
853.474
906.185
951.244
989.133
1020.53
1046.24
1067.1
1083.98
1097.74
1109.09
1118.98
1130.44
3.03674
1.9093
2.30855
2.50525
2.84416
3.25487
3.82494
4.51914
5.4476
6.6376
8.07338
9.88031
12.0452
14.5678
17.4352
20.6541
24.0763
27.5655
31.195
34.8534
38.4965
42.1517
47.0819
50.7472
57.6697
73.8996
108.428
159.676
227.536
307.416
393.617
481.844
568.371
650.483
726.195
794.531
854.975
907.425
952.165
989.734
1020.87
1046.41
1067.25
1084.31
1098.44
1110.37
1121.25
1133.26
3.06978
1.9222
2.32023
2.51246
2.84619
3.25211
3.81607
4.50479
5.42647
6.60963
8.03983
9.84096
12.0006
14.5185
17.3792
20.5882
23.993
27.4607
31.0548
34.6593
38.2295
41.791
46.5551
50.0517
56.6555
72.657
106.968
158.283
226.359
306.57
393.175
481.766
568.546
650.766
726.428
794.557
854.666
906.699
950.998
988.159
1018.97
1044.31
1065.12
1082.31
1096.76
1109.12
1120.73
1133.05
3.10287
1.93515
2.33187
2.51965
2.84819
3.24933
3.80715
4.49038
5.40526
6.58154
8.00612
9.80143
11.9557
14.4687
17.3228
20.5217
23.9088
27.3548
30.9128
34.4628
37.9586
41.4235
46.0124
49.3183
55.5889
71.3109
105.326
156.615
224.797
305.21
392.072
480.86
567.705
649.829
725.236
792.95
852.53
903.979
947.705
984.366
1014.8
1039.94
1060.71
1078.01
1092.69
1105.35
1117.44
1129.84
3.13594
1.94808
2.34356
2.52688
2.85023
3.24657
3.79829
4.47604
5.38414
6.55356
7.97255
9.76205
11.9111
14.4193
17.2668
20.4558
23.8249
27.2498
30.7713
34.2664
37.6868
41.0542
45.4654
48.5801
54.4842
69.8865
103.534
154.693
222.848
303.3
390.237
479.02
565.721
647.537
722.49
789.611
848.516
899.277
942.365
978.501
1008.56
1033.49
1054.21
1071.58
1086.4
1099.23
1111.6
1123.92
3.16905
1.96105
2.35522
2.5341
2.85225
3.2438
3.78938
4.46165
5.36295
6.52549
7.93886
9.72254
11.8662
14.3697
17.2105
20.3895
23.7405
27.1441
30.6288
34.0687
37.4127
40.6807
44.9084
47.8189
53.3358
68.3712
101.574
152.503
220.505
300.846
387.688
476.279
562.633
643.935
718.233
784.581
842.662
892.626
935.009
970.585
1000.26
1024.97
1045.6
1062.98
1077.86
1090.77
1103.28
1115.45
3.20213
1.974
2.36693
2.54134
2.85429
3.24104
3.78052
4.4473
5.34182
6.49749
7.90525
9.68315
11.8216
14.3204
17.1545
20.3239
23.6564
27.0393
30.4869
33.8716
37.138
40.3056
44.3468
47.0468
52.1487
66.7692
99.4454
150.028
217.733
297.791
384.344
472.537
558.335
638.921
712.385
777.816
834.97
884.077
925.734
960.756
990.053
1014.53
1035.04
1052.35
1067.21
1080.1
1092.63
1104.58
3.23526
1.987
2.37861
2.54858
2.85632
3.23828
3.77163
4.43293
5.32065
6.46943
7.87158
9.64367
11.7769
14.2709
17.0986
20.2581
23.5724
26.9346
30.3449
33.6745
36.8629
39.9288
43.7794
46.2598
50.9239
65.0803
97.1477
147.27
214.533
294.14
380.216
467.81
552.848
632.525
704.985
769.365
825.503
873.705
914.619
949.079
977.985
1002.2
1022.53
1039.72
1054.49
1067.28
1079.76
1091.47
3.26835
1.99998
2.39034
2.55585
2.85838
3.23553
3.76278
4.4186
5.29953
6.44141
7.83797
9.60428
11.7323
14.2218
17.043
20.193
23.4887
26.831
30.2039
33.4787
36.5884
39.5521
43.2095
45.463
49.665
63.3062
94.6781
144.214
210.881
289.853
375.252
462.042
546.122
624.71
696.018
759.244
814.31
861.587
901.758
935.662
964.158
988.074
1008.17
1025.18
1039.77
1052.39
1064.74
1076.16
3.30149
2.01301
2.40204
2.56311
2.86042
3.23277
3.7539
4.40424
5.27837
6.41336
7.80431
9.56485
11.6878
14.1726
16.9875
20.128
23.4058
26.7281
30.0637
33.2844
36.3154
39.1762
42.638
44.6573
48.3758
61.4499
92.0382
140.862
206.772
284.927
369.45
455.233
538.166
615.499
685.527
747.518
801.472
847.812
887.241
920.578
948.641
972.216
992.031
1008.79
1023.15
1035.56
1047.7
1058.79
3.33459
2.02602
2.41377
2.5704
2.86249
3.23001
3.74506
4.3899
5.25724
6.38533
7.77068
9.52549
11.6434
14.1237
16.9326
20.0637
23.3236
26.6267
29.9252
33.0927
36.0448
38.803
42.0681
43.8468
47.0612
59.5159
89.2301
137.207
202.196
279.344
362.788
447.368
528.974
604.907
673.547
734.246
787.065
832.467
871.154
903.909
931.511
954.702
974.187
990.65
1004.74
1016.89
1028.78
1039.52
3.36772
2.03907
2.42548
2.57768
2.86455
3.22726
3.7362
4.37554
5.23608
6.35726
7.73702
9.4861
11.599
14.0749
16.8779
19.9998
23.2425
26.5265
29.7886
32.904
35.7783
38.4339
41.5017
43.0345
45.7265
57.5091
86.2577
133.252
197.148
273.099
355.266
438.449
518.565
592.97
660.14
719.504
771.176
815.639
853.575
885.73
912.83
935.596
954.708
970.838
984.633
996.507
1008.14
1018.55
3.40081
2.05212
2.43723
2.58498
2.86662
3.22451
3.72737
4.36119
5.21493
6.3292
7.70337
9.44677
11.5548
14.0264
16.8239
19.9366
23.1629
26.4285
29.6547
32.7196
35.5165
38.0709
40.9422
42.2249
44.3789
55.4375
83.1277
128.998
191.63
266.19
346.883
428.488
506.966
579.734
645.369
703.372
753.891
797.409
834.583
866.104
892.675
914.969
933.672
949.422
962.879
974.423
985.744
995.768
3.43393
2.0652
2.44894
2.59228
2.86869
3.22175
3.71852
4.34682
5.19375
6.30108
7.66968
9.40742
11.5106
13.9781
16.7704
19.874
23.0849
26.3325
29.5239
32.5399
35.2618
37.7159
40.3925
41.4226
43.0254
53.3085
79.8478
124.454
185.642
258.621
337.65
417.504
494.212
565.258
629.311
685.935
735.291
777.855
814.243
845.105
871.109
892.911
911.182
926.552
939.671
950.908
961.934
971.626
3.46701
2.07828
2.46069
2.59959
2.87077
3.21899
3.70971
4.33245
5.17256
6.27297
7.63598
9.36811
11.4667
13.9302
16.7177
19.8124
23.009
26.2392
29.397
32.3667
35.0151
37.3715
39.8566
40.6332
41.6752
51.1337
76.4297
119.626
179.196
250.404
327.584
405.532
480.354
549.608
612.045
667.274
715.457
757.047
792.619
822.791
848.202
869.488
887.308
902.277
915.036
925.941
936.642
945.978
3.50011
2.0914
2.47241
2.6069
2.87284
3.21623
3.70085
4.31803
5.15132
6.24477
7.60221
9.32877
11.4228
13.8825
16.6656
19.7516
22.9353
26.1488
29.2748
32.2
34.7787
37.0399
39.3382
39.8623
40.3374
48.9235
72.8857
114.529
172.303
241.556
316.71
392.609
465.447
532.854
593.653
647.474
694.466
735.05
769.774
799.218
824.017
844.79
862.184
876.804
889.268
899.921
910.384
919.47
3.53316
2.1045
2.48416
2.61423
2.87493
3.21346
3.69204
4.30361
5.13006
6.21655
7.56841
9.28945
11.3791
13.8352
16.6146
19.6919
22.8646
26.062
29.158
32.0423
34.5541
36.724
38.8418
39.1168
39.0232
46.6928
69.2325
109.18
164.984
232.101
305.064
378.787
449.558
515.077
574.219
626.615
672.389
711.934
745.753
774.429
798.565
818.8
835.74
850.008
862.177
872.607
882.87
891.775
3.56623
2.11765
2.49588
2.62154
2.87699
3.21068
3.68317
4.28913
5.10871
6.18822
7.5345
9.25006
11.3354
13.7883
16.5643
19.6336
22.7966
25.9793
29.0476
31.8935
34.3438
36.4266
38.3719
38.4033
37.7434
44.4553
65.4872
103.598
157.26
222.07
292.686
364.119
432.753
496.354
553.822
604.776
649.306
687.766
720.634
748.483
771.914
791.569
808.051
821.974
833.899
844.175
854.343
863.195
3.59924
2.13079
2.50763
2.62886
2.87906
3.20789
3.67435
4.27462
5.08732
6.15982
7.50052
9.21065
11.2919
13.7418
16.5152
19.5766
22.7324
25.901
28.9444
31.7563
34.1499
36.1512
37.9334
37.7299
36.5111
42.229
61.6715
97.8067
149.162
211.499
279.628
348.668
415.108
476.764
532.544
582.038
625.297
662.633
694.505
721.47
744.126
763.105
779.008
792.442
803.961
813.913
823.811
832.438
3.63226
2.14396
2.51935
2.63616
2.88111
3.20508
3.66545
4.26003
5.06582
6.13126
7.46637
9.17111
11.2484
13.6956
16.4669
19.5214
22.6716
25.8283
28.8497
31.6311
33.9748
35.9012
37.5318
37.1039
35.338
40.03
57.8061
91.8329
140.72
200.431
265.939
332.498
396.694
456.382
510.458
558.477
600.44
636.633
667.482
693.554
715.432
733.751
749.101
762.065
773.179
782.764
792.271
800.445
3.66522
2.15713
2.5311
2.64347
2.88317
3.20225
3.65658
4.24538
5.04424
6.1026
7.43207
9.1315
11.205
13.6499
16.42
19.4678
22.6154
25.7611
28.7644
31.5205
33.8213
35.6804
37.1725
36.5339
34.238
37.8775
53.9153
85.7053
131.972
188.909
251.675
315.674
377.579
435.277
487.632
534.156
574.816
609.841
639.663
664.804
685.877
703.471
718.203
730.613
741.254
750.407
759.5
767.289
3.69817
2.17032
2.54282
2.65076
2.88519
3.1994
3.64761
4.23063
5.02249
6.0737
7.39754
9.09167
11.1615
13.6045
16.374
19.4166
22.5632
25.7009
28.6897
31.4253
33.6917
35.4928
36.8617
36.0282
33.2227
35.7883
50.0217
79.4526
122.954
176.98
236.892
298.257
357.828
413.508
464.122
509.141
548.484
582.352
611.152
635.406
655.706
672.644
686.8
698.71
708.889
717.608
726.265
733.609
3.73107
2.18351
2.55456
2.65805
2.88721
3.19652
3.63867
4.21579
5.00062
6.04463
7.36278
9.05168
11.1181
13.5597
16.3295
19.3672
22.5164
25.6477
28.627
31.3481
33.5896
35.3426
36.605
35.596
32.3064
33.7816
46.15
73.1073
113.708
164.693
221.648
280.309
337.502
391.132
439.982
483.483
521.507
554.225
582.014
605.373
624.874
641.098
654.619
665.971
675.66
683.959
692.216
699.2
3.76395
2.19672
2.56628
2.66531
2.88919
3.1936
3.62959
4.2008
4.97854
6.01526
7.32769
9.01134
11.0744
13.515
16.2859
19.3209
22.4742
25.6031
28.5774
31.2904
33.517
35.2342
36.4093
35.2455
31.5004
31.8736
42.3225
66.6981
104.272
152.097
205.997
261.888
316.656
368.199
415.261
457.226
493.941
525.541
552.396
574.984
593.862
609.582
622.686
633.677
643.042
651.028
658.966
665.638
3.79676
2.20993
2.57803
2.67256
2.89116
3.19065
3.62051
4.18569
4.95627
5.98563
7.29225
8.97071
11.0307
13.4709
16.2438
19.2768
22.438
25.567
28.5424
31.2545
33.4783
35.1724
36.2803
34.986
30.8175
30.0816
38.5611
60.2546
94.6866
139.238
189.994
243.046
295.337
344.751
389.99
430.407
465.797
496.286
522.197
544.006
562.229
577.424
590.105
600.778
609.899
617.711
625.51
632.079
3.82955
2.22316
2.58973
2.67978
2.89307
3.18763
3.61127
4.17039
4.93373
5.9556
7.25636
8.92957
10.9866
13.4268
16.2027
19.2363
22.4072
25.5411
28.5231
31.2425
33.4751
35.1615
36.2248
34.8247
30.2668
28.4193
34.884
53.8008
84.9827
126.158
173.684
223.83
273.59
320.827
364.211
403.053
437.126
466.535
491.592
512.747
530.491
545.344
557.795
568.32
577.359
585.154
592.956
599.567
3.86226
2.23637
2.60148
2.68698
2.89497
3.18457
3.60199
4.15492
4.91093
5.92519
7.21997
8.88796
10.9421
13.3831
16.1629
19.1984
22.3828
25.5255
28.5214
31.2564
33.5124
35.2066
36.2482
34.7699
29.8577
26.8995
31.3087
47.3592
75.1877
112.891
157.106
204.28
251.45
296.463
337.952
375.187
407.918
436.225
460.392
480.847
498.049
512.503
524.667
535.011
543.951
551.715
559.546
566.242
3.89493
2.2496
2.61318
2.69414
2.89681
3.18142
3.59252
4.13921
4.88778
5.89428
7.18297
8.84563
10.897
13.3392
16.124
19.1644
22.3643
25.5217
28.5381
31.299
33.5915
35.3118
36.3565
34.8265
29.5949
25.5295
27.8486
40.9481
65.3208
99.4579
140.286
184.426
228.952
271.697
311.252
346.858
378.228
405.442
428.762
448.597
465.378
479.558
491.572
501.836
510.744
518.503
526.289
532.889
3.92752
2.26282
2.62492
2.70127
2.89861
3.1782
3.58297
4.12328
4.8643
5.86287
7.14531
8.80261
10.8513
13.2955
16.0862
19.1336
22.3525
25.5297
28.5753
31.3718
33.7174
35.4817
36.5541
35.0002
29.4821
24.3136
24.5132
34.5855
55.4016
85.873
123.235
164.283
206.121
246.557
284.153
318.091
348.067
374.111
396.481
415.536
431.721
445.454
457.176
467.262
476.102
483.855
491.691
498.399
3.96006
2.27604
2.63661
2.70837
2.90035
3.17488
3.57319
4.10705
4.84036
5.83082
7.10683
8.75859
10.8048
13.2513
16.0491
19.1066
22.3474
25.551
28.6334
31.4779
33.891
35.7197
36.8452
35.2924
29.517
23.249
21.3028
28.2783
45.4411
72.1446
105.954
143.85
182.966
221.075
256.692
288.962
317.54
342.432
363.864
382.171
397.754
411.003
422.316
432.052
440.577
448.068
455.655
462.106
3.99251
2.28924
2.64833
2.71542
2.90204
3.17147
3.56328
4.09054
4.81601
5.79813
7.06748
8.7136
10.7572
13.2068
16.0127
19.0831
22.3489
25.5855
28.7144
31.618
34.1166
36.0294
37.2321
35.7044
29.6956
22.3295
18.2136
22.0336
35.4533
58.2854
88.4492
123.119
159.476
195.253
228.902
259.506
286.676
310.37
330.772
348.19
363.015
375.633
386.435
395.773
403.992
411.248
418.622
424.885
4.02489
2.30245
2.66
2.72244
2.90366
3.16792
3.55311
4.07366
4.79111
5.76465
7.02708
8.6673
10.7083
13.1613
15.9766
19.0631
22.3573
25.6341
28.8185
31.7955
34.3947
36.4126
37.7156
36.232
30.0064
21.5396
15.2313
15.8436
25.4407
44.3031
70.7305
102.097
135.645
169.085
200.796
229.785
255.624
278.229
297.74
314.417
328.608
340.664
350.952
359.798
367.527
374.295
381.179
386.951
4.05718
2.31563
2.6717
2.7294
2.90522
3.16425
3.54277
4.05645
4.76569
5.73038
6.98558
8.61969
10.6579
13.1151
15.9407
19.0466
22.3721
25.6969
28.9474
32.0098
34.7281
36.8705
38.2945
36.87
30.435
20.8596
12.3382
9.6994
15.3977
30.1991
52.8001
80.7935
111.482
142.559
172.353
199.773
224.304
245.823
264.42
280.326
293.866
305.384
315.222
323.703
331.133
337.661
344.326
349.884
4.08938
2.32881
2.68333
2.73632
2.9067
3.16041
3.53214
4.0388
4.73961
5.69516
6.94278
8.57039
10.6058
13.0672
15.9045
19.0328
22.3938
25.7739
29.1002
32.2635
35.1158
37.402
38.9646
37.6066
30.9594
20.26
9.50405
3.57625
5.3132
15.9673
34.6565
59.2055
86.993
115.685
143.575
169.495
192.843
213.449
231.355
246.746
259.899
271.122
280.731
289.024
296.291
302.671
309.186
314.586
4.12146
2.34195
2.69499
2.74318
2.90812
3.15643
3.52128
4.02075
4.71291
5.65899
6.89859
8.51941
10.5516
13.0179
15.8677
19.0221
22.4209
25.865
29.2783
32.5548
35.5582
38.005
39.7196
38.4288
31.554
19.7078
6.69639
-2.54989
-4.82477
1.60426
16.2911
37.3225
62.1648
88.4518
114.43
138.869
161.053
180.735
197.909
212.713
225.398
236.252
245.575
253.655
260.77
267.034
273.487
278.857
4.15345
2.35509
2.70655
2.74999
2.90945
3.15226
3.51011
4.0022
4.68544
5.62169
6.85283
8.46632
10.4951
12.9662
15.8298
19.0126
22.4544
25.9693
29.4795
32.8844
36.0521
38.6742
40.5488
39.3156
32.1851
19.1599
3.87218
-8.71292
-15.0337
-12.894
-2.29631
15.1364
36.9826
60.8446
84.9229
107.923
129.058
148.009
164.723
179.283
191.879
202.741
212.128
220.291
227.488
233.838
240.351
245.74
4.1853
2.36819
2.71814
2.75674
2.91072
3.1479
3.49867
3.98319
4.65725
5.58327
6.80539
8.41111
10.4359
12.9122
15.7902
19.0053
22.4917
26.0863
29.7041
33.2488
36.5943
39.4024
41.4388
40.2445
32.8163
18.5716
0.986861
-14.9467
-25.3374
-27.5397
-21.1059
-7.35168
11.4336
32.8453
55.0045
76.5483
96.5723
114.651
130.673
144.689
156.888
167.497
176.771
184.946
192.276
198.834
205.686
211.5
4.21703
2.38128
2.72963
2.76342
2.91188
3.14334
3.4869
3.96362
4.62819
5.54357
6.75609
8.35335
10.3737
12.8547
15.7482
18.9971
22.5336
26.2138
29.9484
33.6461
37.1787
40.1791
42.3711
41.1851
33.4036
17.8901
-2.01066
-21.2912
-35.7598
-42.335
-40.1306
-30.1415
-14.485
4.43456
24.6833
44.8393
63.9189
81.3898
97.0335
110.807
122.822
133.256
142.345
150.32
157.431
163.791
170.408
175.916
4.24862
2.39432
2.74112
2.77005
2.91297
3.13855
3.47483
3.94352
4.5983
5.50259
6.70481
8.29303
10.308
12.7939
15.7031
18.9892
22.5768
26.3505
30.2109
34.0702
37.7972
40.991
43.3251
42.1061
33.9022
17.0635
-5.17085
-27.7843
-46.3192
-57.2779
-59.3554
-53.2188
-40.7843
-24.4228
-6.14626
12.5616
30.6317
47.4417
62.6959
76.3015
88.3112
98.8626
108.135
116.327
123.66
130.2
137.022
142.702
4.28005
2.40735
2.75249
2.77661
2.91396
3.13356
3.46242
3.92281
4.56744
5.46017
6.6514
8.2297
10.2387
12.7285
15.6541
18.9779
22.6217
26.493
30.4864
34.516
38.4401
41.8216
44.2742
42.9683
34.2612
16.0347
-8.54612
-34.4645
-57.0316
-72.3678
-78.7673
-76.5627
-67.4467
-53.7341
-37.4907
-20.2703
-3.21272
12.9756
27.9066
41.4134
53.4798
64.1921
73.6922
82.1579
89.7849
96.6574
103.819
109.809
4.31133
2.42033
2.76383
2.7831
2.91487
3.12831
3.44971
3.90151
4.53566
5.41633
6.59572
8.16335
10.1652
12.6586
15.6004
18.9642
22.6644
26.6389
30.7711
34.9746
39.0941
42.6515
45.1907
43.7338
34.4316
14.7509
-12.1849
-41.3645
-67.9076
-87.5971
-98.3354
-100.13
-94.4462
-83.4932
-69.3969
-53.796
-37.9262
-22.5762
-8.21799
4.94483
16.8473
27.5659
37.2008
45.9274
53.9043
61.2018
68.8846
75.4176
4.34241
2.43328
2.77506
2.78951
2.91567
3.12284
3.43663
3.87956
4.50284
5.37091
6.53767
8.09355
10.0873
12.5828
15.5406
18.9437
22.7042
26.7836
31.0577
35.437
39.7455
43.4584
46.0414
44.3577
34.3608
13.1581
-16.1331
-48.5136
-78.9529
-102.945
-118.014
-123.865
-121.722
-113.657
-101.812
-87.909
-73.2641
-58.751
-44.935
-32.1092
-20.406
-9.80883
-0.243396
8.43388
16.3704
23.6493
31.3034
37.7067
4.37331
2.44619
2.78623
2.79586
2.91639
3.11711
3.42326
3.85699
4.46902
5.32394
6.47708
8.02033
10.0043
12.5013
15.4741
18.9172
22.7368
26.9234
31.3405
35.892
40.3762
44.2175
46.7936
44.7996
34.0021
11.2102
-20.429
-55.9327
-90.1645
-118.378
-137.757
-147.701
-149.202
-144.163
-134.724
-122.688
-109.468
-96.0141
-82.9608
-70.6499
-59.2621
-48.8189
-39.2916
-30.5676
-22.5237
-15.1109
-7.2782
-0.724706
4.40398
2.45906
2.79727
2.8021
2.91698
3.11117
3.40952
3.83374
4.43412
5.27528
6.41393
7.94325
9.91636
12.4126
15.3993
18.8801
22.7606
27.0524
31.61
36.327
40.9692
44.9028
47.4106
45.0136
33.3068
8.86338
-25.1051
-63.6354
-101.531
-133.86
-157.505
-171.554
-176.774
-174.901
-168.009
-157.958
-146.248
-133.924
-121.707
-110.021
-99.1081
-89.0387
-79.8091
-71.3277
-63.498
-56.2592
-48.5785
-42.2197
4.43444
2.47187
2.80823
2.80829
2.9175
3.10495
3.39552
3.80983
4.39815
5.22499
6.34803
7.86238
9.82264
12.3168
15.3157
18.8328
22.7712
27.166
31.8589
36.7285
41.5028
45.4862
47.8584
44.9619
32.2374
6.08534
-30.183
-71.6254
-113.03
-149.34
-177.178
-195.322
-204.319
-205.744
-201.582
-193.719
-183.743
-172.786
-161.628
-150.75
-140.434
-130.793
-121.86
-113.582
-105.877
-98.7106
-91.0269
-84.7076
4.46463
2.48465
2.81906
2.81437
2.91787
3.09855
3.38112
3.78524
4.36108
5.17294
6.27945
7.77734
9.72323
12.2127
15.2212
18.7707
22.7658
27.2573
32.0763
37.082
41.9587
45.9408
48.1012
44.6034
30.7559
2.84877
-35.676
-79.8968
-124.633
-164.759
-196.681
-218.89
-231.687
-236.499
-235.213
-229.681
-221.545
-212.031
-201.993
-191.99
-182.355
-173.258
-164.758
-156.834
-149.429
-142.517
-135.078
-129.103
4.49457
2.49737
2.82979
2.82038
2.91817
3.09188
3.36651
3.75998
4.32293
5.11919
6.20799
7.68825
9.61749
12.1002
15.1156
18.6938
22.7403
27.3213
32.2539
37.373
42.3138
46.2386
48.1082
43.9088
28.8394
-0.859564
-41.5844
-88.4336
-136.301
-180.051
-215.925
-242.134
-258.723
-266.972
-268.699
-265.707
-259.661
-251.868
-243.244
-234.402
-225.709
-217.367
-209.465
-202.017
-194.984
-188.386
-181.155
-175.387
4.52419
2.51004
2.84038
2.82626
2.91831
3.08502
3.35149
3.73406
4.28368
5.06367
6.13382
7.59475
9.50553
11.9782
14.9965
18.5979
22.6911
27.3504
32.3802
37.5865
42.5508
46.3555
47.8496
42.8473
26.4656
-5.04647
-47.8999
-97.21
-147.986
-195.142
-234.8
-264.919
-285.264
-296.932
-301.693
-301.313
-297.416
-291.353
-284.112
-276.389
-268.609
-261.032
-253.778
-246.897
-240.37
-234.232
-227.436
-222.236
4.55352
2.52266
2.85086
2.83207
2.91836
3.07794
3.33631
3.70745
4.24334
5.00641
6.05673
7.49706
9.38685
11.8467
14.8642
18.4824
22.6148
27.3397
32.447
37.709
42.648
46.2676
47.3023
41.4029
23.6306
-9.70349
-54.6009
-106.191
-159.635
-209.955
-253.208
-287.117
-311.161
-326.221
-333.991
-336.269
-334.687
-330.604
-325.046
-318.764
-312.208
-305.665
-299.272
-293.109
-287.172
-281.567
-275.17
-270.333
4.58248
2.5352
2.8612
2.83774
2.91824
3.07069
3.3207
3.68023
4.20195
4.94742
5.97694
7.39485
9.26156
11.7048
14.7163
18.3441
22.5071
27.2822
32.4439
37.7268
42.5917
45.957
46.4467
39.5592
20.3305
-14.816
-61.6572
-115.332
-171.189
-224.408
-271.039
-308.603
-336.278
-354.688
-365.373
-370.122
-370.626
-368.281
-364.134
-359.011
-353.436
-347.757
-342.142
-336.7
-331.443
-326.501
-320.733
-316.641
4.61108
2.54769
2.87141
2.84334
2.91803
3.06325
3.30496
3.65235
4.15951
4.8867
5.89434
7.28844
9.12935
11.5527
14.5531
18.182
22.3659
27.1735
32.3638
37.6291
42.3649
45.4072
45.2709
37.3166
16.5816
-20.3541
-69.0269
-124.582
-182.583
-238.419
-288.188
-329.249
-360.487
-382.247
-395.838
-403.006
-405.516
-404.851
-402.118
-398.172
-393.575
-388.707
-383.768
-378.894
-374.113
-369.633
-364.196
-360.376
4.63926
2.5601
2.8815
2.84878
2.91763
3.05565
3.28879
3.6239
4.1161
4.82434
5.80914
7.17753
8.99035
11.3894
14.3726
17.9941
22.1867
27.0077
32.1983
37.4058
41.9594
44.6094
43.7687
34.6749
12.3984
-26.2835
-76.6619
-133.884
-193.751
-251.905
-304.551
-348.931
-383.657
-408.753
-425.274
-434.852
-439.213
-439.899
-438.105
-434.759
-430.501
-425.79
-420.894
-416.001
-411.179
-406.663
-401.149
-397.375
4.66702
2.57244
2.89145
2.85414
2.91712
3.04791
3.27252
3.59484
4.0717
4.76029
5.72134
7.06252
8.84449
11.2156
14.1754
17.779
21.9692
26.7819
31.9428
37.0502
41.3647
43.5565
41.9404
31.6509
7.81598
-32.5567
-84.505
-143.174
-204.623
-264.784
-320.024
-367.525
-405.64
-434.079
-453.616
-465.767
-472.206
-474.514
-473.945
-471.474
-467.793
-463.389
-458.573
-453.556
-448.442
-443.517
-437.361
-432.834
4.69427
2.58469
2.90128
2.85935
2.91642
3.04001
3.25581
3.56527
4.02642
4.69474
5.63107
6.94316
8.69183
11.0303
13.9599
17.5363
21.7089
26.4921
31.5919
36.5568
40.58
42.25
39.7937
28.2597
2.86394
-39.1251
-92.4969
-152.391
-215.134
-276.98
-334.514
-384.906
-426.292
-458.045
-480.657
-495.428
-503.952
-507.802
-508.321
-506.555
-503.329
-499.192
-494.542
-489.613
-484.563
-479.658
-473.462
-469.046
4.72104
2.59687
2.91098
2.86445
2.91559
3.03204
3.239
3.53515
3.98024
4.62759
5.53849
6.81994
8.53258
10.8344
13.7269
17.2644
21.4072
26.137
31.1442
35.9242
39.602
40.6926
37.341
24.5325
-2.40812
-45.9293
-100.572
-161.467
-225.219
-288.425
-347.931
-400.96
-445.464
-480.498
-506.254
-523.804
-534.62
-540.281
-542.178
-541.426
-538.902
-535.221
-530.823
-526.005
-520.945
-515.992
-509.596
-505.027
4.74721
2.60895
2.92054
2.8694
2.91459
3.02387
3.22173
3.50459
3.9333
4.55911
5.44364
6.69261
8.36674
10.6271
13.4753
16.9644
21.0605
25.715
30.5978
35.1521
38.4377
38.8967
34.6033
20.4974
-7.9593
-52.9113
-108.664
-170.339
-234.816
-299.051
-360.193
-415.571
-463.004
-501.244
-530.166
-550.553
-563.723
-571.232
-574.513
-574.763
-572.959
-569.796
-565.777
-561.237
-556.381
-551.58
-545.231
-540.821
4.77281
2.62096
2.93
2.87424
2.91341
3.01567
3.20433
3.47355
3.88557
4.48911
5.34685
6.56172
8.19475
10.4093
13.2059
16.6346
20.6718
25.2269
29.9548
34.2444
37.0914
36.8737
31.6026
16.1964
-13.7307
-60.0059
-116.706
-178.942
-243.866
-308.799
-371.225
-428.636
-478.772
-520.113
-552.214
-575.532
-591.233
-600.818
-605.732
-607.222
-606.329
-603.814
-600.236
-595.972
-591.268
-586.559
-580.14
-575.719
4.79773
2.63284
2.9393
2.87892
2.91207
3.00726
3.18649
3.4421
3.83715
4.41797
5.24787
6.42696
8.0164
10.1806
12.9185
16.2773
20.238
24.6727
29.2157
33.2044
35.5743
34.6415
28.3658
11.6609
-19.6818
-67.1594
-124.641
-187.223
-252.325
-317.627
-380.976
-440.079
-492.655
-536.958
-572.199
-598.513
-616.873
-628.665
-635.314
-638.124
-638.197
-636.38
-633.288
-629.356
-624.865
-620.309
-613.895
-609.562
4.82197
2.64465
2.9485
2.8835
2.91055
2.99883
3.16846
3.41026
3.78805
4.34541
5.14731
6.28894
7.83235
9.94183
12.6134
15.8906
19.763
24.0541
28.3844
32.0386
33.8946
32.2156
24.9181
6.93572
-25.7529
-74.3085
-132.403
-195.124
-260.144
-325.495
-389.401
-449.83
-504.549
-551.631
-589.958
-619.342
-640.52
-654.706
-663.3
-667.636
-668.875
-667.928
-665.475
-661.994
-657.81
-653.481
-647.12
-642.909
4.84542
2.65633
2.95752
2.88792
2.90888
2.99015
3.15
3.37807
3.73836
4.27194
5.04477
6.14744
7.64244
9.69272
12.2915
15.4783
19.2448
23.3735
27.4645
30.7543
32.0681
29.6202
21.2947
2.06062
-31.8954
-81.393
-139.934
-202.595
-267.285
-332.378
-396.474
-457.851
-514.382
-564.019
-605.338
-637.848
-661.97
-678.701
-689.362
-695.305
-697.744
-697.668
-695.83
-692.782
-688.891
-684.791
-678.502
-674.463
4.86808
2.66792
2.96646
2.89224
2.90701
2.98147
3.13126
3.34557
3.68814
4.19723
4.94109
6.00311
7.4475
9.43434
11.9526
15.0382
18.6882
22.6337
26.462
29.3613
30.1083
26.8762
17.5256
-2.91555
-38.0479
-88.3509
-147.172
-209.586
-273.72
-338.261
-402.193
-464.125
-522.103
-574.023
-618.204
-653.84
-681.008
-700.482
-713.477
-721.314
-725.234
-726.277
-725.262
-722.789
-719.279
-715.448
-709.198
-705.244
4.88984
2.67938
2.97518
2.8964
2.90502
2.97251
3.11217
3.31277
3.63741
4.12183
4.83554
5.8557
7.24724
9.16662
11.5988
14.5754
18.0925
21.8388
25.3828
27.8697
28.0332
24.01
13.6478
-7.95379
-44.166
-95.1304
-154.072
-216.06
-279.425
-343.144
-406.565
-468.656
-527.691
-581.574
-628.427
-667.12
-697.373
-719.738
-735.241
-745.121
-750.637
-752.884
-752.753
-750.914
-747.828
-744.295
-738.115
-734.291
4.91066
2.69075
2.9838
2.90047
2.90283
2.96352
3.09271
3.27975
3.58629
4.0454
4.72926
5.70593
7.04266
8.89053
11.2293
14.0876
17.4625
20.9923
24.2338
26.291
25.859
21.0444
9.69075
-13.0082
-50.1945
-101.679
-160.583
-221.987
-284.394
-347.043
-409.629
-471.488
-531.165
-586.65
-635.927
-677.553
-710.936
-736.365
-754.636
-766.877
-774.347
-778.188
-779.35
-778.55
-776.295
-773.464
-767.706
-764.316
4.93047
2.70196
2.99216
2.90439
2.90056
2.95424
3.07295
3.24644
3.53474
3.9685
4.62124
5.55348
6.83337
8.60622
10.8472
13.5802
16.7985
20.0995
23.0225
24.6361
23.6026
18.0043
5.68972
-18.0431
-56.0954
-107.956
-166.678
-227.347
-288.627
-349.983
-411.434
-472.677
-532.573
-589.259
-640.645
-685.027
-721.501
-750
-771.081
-785.752
-795.2
-800.6
-802.976
-803.159
-801.713
-799.621
-794.455
-791.873
4.94919
2.71308
3.00041
2.90823
2.8981
2.94489
3.05272
3.21299
3.48291
3.89081
4.51288
5.39915
6.62046
8.31454
10.4508
13.0514
16.1049
19.1638
21.7561
22.9173
21.2825
14.9132
1.67198
-23.0188
-61.8232
-113.92
-172.317
-232.124
-292.132
-352.005
-412.047
-472.313
-531.999
-589.452
-642.586
-689.497
-728.962
-760.573
-784.697
-802.125
-813.892
-821.155
-824.993
-826.306
-825.712
-824.317
-819.499
-817.227
4.96675
2.72403
3.00835
2.91192
2.89558
2.93525
3.03232
3.17927
3.4307
3.81279
4.40285
5.24253
6.40351
8.01595
10.0444
12.5066
15.3835
18.1916
20.4427
21.1457
18.913
11.7925
-2.33134
-27.9049
-67.3481
-119.544
-177.489
-236.315
-294.929
-353.155
-411.55
-470.502
-529.558
-587.326
-641.797
-690.934
-733.209
-767.897
-795.052
-815.269
-829.465
-838.697
-844.068
-846.569
-846.913
-846.307
-842.039
-840.439
4.98306
2.73487
3.01614
2.91556
2.89291
2.92547
3.01136
3.14544
3.37833
3.73425
4.2928
5.0845
6.18358
7.71104
9.62551
11.9441
14.6377
17.1858
19.0891
19.3337
16.5138
8.66502
-6.2969
-32.6702
-72.6368
-124.8
-182.169
-239.917
-297.04
-353.488
-410.034
-467.371
-525.392
-583.014
-638.372
-689.365
-734.232
-771.92
-802.177
-825.422
-842.407
-854.052
-861.392
-865.475
-867.087
-867.614
-864.183
-863.462
4.99805
2.74553
3.02357
2.91902
2.89019
2.91544
2.99036
3.11137
3.32563
3.65551
4.18116
4.92457
5.96025
7.40053
9.19911
11.3692
13.8704
16.1533
17.7039
17.4901
14.0941
5.54656
-10.1994
-37.2895
-77.6659
-129.671
-186.359
-242.946
-298.499
-353.07
-407.601
-463.058
-519.673
-576.69
-632.455
-684.884
-732.036
-772.549
-805.841
-832.048
-851.802
-865.912
-875.268
-880.889
-883.635
-885.047
-882.158
-881.992
5.01162
2.75608
3.03078
2.92246
2.88739
2.90523
2.96874
3.07719
3.27286
3.57652
4.06973
4.76368
5.73454
7.08472
8.76206
10.7803
13.0835
15.0962
16.2931
15.6283
11.675
2.45894
-14.0198
-41.7416
-82.4166
-134.143
-190.049