/*--------------------------------*- C++ -*----------------------------------*\
  =========                 |
  \\      /  F ield         | OpenFOAM: The Open Source CFD Toolbox
   \\    /   O peration     | Website:  https://openfoam.org
    \\  /    A nd           | Version:  10
     \\/     M anipulation  |
\*---------------------------------------------------------------------------*/
FoamFile
{
    format      ascii;
    class       surfaceScalarField;
    location    "10";
    object      phi;
}
// * * * * * * * * * * * * * * * * * * * * * * * * * * * * * * * * * * * * * //

dimensions      [0 3 -1 0 0 0 0];

internalField   nonuniform List<scalar> 
75600
(
0.00983706
-1236.74
1236.74
0.00560629
-1023.91
1023.91
0.00206737
-847.739
847.743
-0.00088005
-701.91
701.913
-0.003328
-581.203
581.205
-0.00535866
-481.298
481.3
-0.00704204
-398.62
398.622
-0.00844021
-330.21
330.211
-0.00959672
-273.618
273.619
-0.0105544
-226.82
226.82
-0.0113475
-188.139
188.139
-0.0120031
-156.191
156.191
-0.0125444
-129.832
129.833
-0.0129914
-108.12
108.12
-0.0133592
-90.2755
90.2758
-0.0136621
-75.661
75.6613
-0.0139098
-63.7533
63.7535
-0.0141128
-54.1258
54.126
-0.0142772
-46.4342
46.4343
-0.0144081
-40.403
40.4031
-0.0145089
-35.8162
35.8163
-0.0145804
-32.509
32.5091
-0.0146205
-30.3618
30.3619
-0.0146189
-29.2954
29.2954
-0.0145567
-29.1604
29.1604
-0.0144456
-23.2339
23.2338
-0.0142999
-18.5017
18.5016
-0.0141342
-14.726
14.7259
-0.0139573
-11.7162
11.716
-0.0137727
-9.319
9.31882
-0.0135787
-7.41129
7.4111
-0.0133727
-5.89409
5.89389
-0.0131534
-4.68803
4.68781
-0.0129196
-3.72965
3.72942
-0.0126721
-2.96836
2.96811
-0.0124133
-2.36387
2.36362
-0.0121477
-1.88416
1.8839
-0.0118801
-1.50379
1.50352
-0.0116153
-1.20258
1.20231
-0.0113585
-0.964564
0.964307
-0.0111139
-0.777136
0.776891
-0.0108851
-0.630373
0.630144
-0.0106735
-0.516501
0.51629
-0.0104783
-0.429496
0.429301
-0.0102978
-0.364755
0.364575
-0.010145
-0.318791
0.318638
-0.00991967
-0.289348
0.289123
-0.274258
0.273924
-0.00958614
0.034779
-1236.73
0.0258993
-1023.9
0.0185032
-847.732
0.0123593
-701.904
0.00726003
-581.198
0.00303078
-481.294
-0.000476012
-398.617
-0.00338108
-330.207
-0.00579093
-273.616
-0.00778742
-226.818
-0.00944249
-188.137
-0.0108147
-156.189
-0.0119524
-129.831
-0.0128963
-108.119
-0.0136802
-90.2747
-0.0143326
-75.6604
-0.0148755
-63.7527
-0.0153303
-54.1253
-0.0157111
-46.4338
-0.0160311
-40.4027
-0.0162987
-35.8159
-0.0165211
-32.5088
-0.0166979
-30.3617
-0.0168297
-29.2953
-0.016887
-29.1604
-0.0168402
-23.2339
-0.0167144
-18.5018
-0.0165308
-14.7262
-0.016305
-11.7164
-0.0160471
-9.31926
-0.0157597
-7.41158
-0.0154436
-5.89441
-0.0150999
-4.68837
-0.0147293
-3.73002
-0.0143353
-2.96875
-0.0139234
-2.36429
-0.0135014
-1.88458
-0.0130777
-1.50421
-0.0126608
-1.20299
-0.0122588
-0.964966
-0.011878
-0.777517
-0.0115235
-0.630727
-0.0111969
-0.516828
-0.0108957
-0.429797
-0.0106154
-0.365035
-0.0103665
-0.31904
-0.0100234
-0.289691
-0.274821
-0.00946078
0.0592574
-1236.71
0.0452199
-1023.88
0.0335534
-847.72
0.0238716
-701.894
0.0158469
-581.19
0.00919193
-481.287
0.00367856
-398.611
-0.000894572
-330.202
-0.00468256
-273.612
-0.00782386
-226.814
-0.0104296
-188.134
-0.0125921
-156.187
-0.0143883
-129.829
-0.0158823
-108.117
-0.0171272
-90.2734
-0.0181682
-75.6594
-0.0190414
-63.7519
-0.0197789
-54.1246
-0.0204054
-46.4332
-0.0209414
-40.4022
-0.0214009
-35.8154
-0.0217952
-32.5084
-0.022121
-30.3613
-0.0223725
-29.295
-0.0225295
-29.1602
-0.02253
-23.2339
-0.022398
-18.502
-0.0221654
-14.7265
-0.0218557
-11.7167
-0.0214859
-9.31963
-0.0210625
-7.412
-0.0205888
-5.89488
-0.0200686
-4.68889
-0.0195046
-3.73059
-0.0189036
-2.96935
-0.0182745
-2.36491
-0.0176299
-1.88523
-0.0169831
-1.50486
-0.016347
-1.20363
-0.0157338
-0.965579
-0.0151532
-0.778097
-0.0146115
-0.631269
-0.0141085
-0.517331
-0.0136395
-0.430266
-0.0132015
-0.365474
-0.0127549
-0.319486
-0.0122552
-0.290191
-0.275534
-0.0115413
0.0839039
-1236.69
0.0646341
-1023.86
0.0486474
-847.704
0.035397
-701.881
0.0244176
-581.179
0.0153222
-481.278
0.00778614
-398.604
0.00154345
-330.196
-0.00363328
-273.607
-0.00792444
-226.81
-0.0114853
-188.131
-0.0144423
-156.184
-0.0169012
-129.827
-0.0189504
-108.115
-0.0206625
-90.2717
-0.0220998
-75.6579
-0.0233121
-63.7506
-0.0243442
-54.1236
-0.0252309
-46.4323
-0.0260017
-40.4014
-0.0266793
-35.8148
-0.0272823
-32.5078
-0.0278181
-30.3608
-0.0282803
-29.2946
-0.0286172
-29.1599
-0.0287028
-23.2338
-0.0285782
-18.5021
-0.0282869
-14.7268
-0.0278632
-11.7171
-0.0273341
-9.32016
-0.0267139
-7.41262
-0.0260107
-5.89558
-0.0252331
-4.68967
-0.0243874
-3.73143
-0.0234855
-2.97025
-0.0225422
-2.36586
-0.0215759
-1.88619
-0.0206058
-1.50583
-0.0196504
-1.20459
-0.0187257
-0.966503
-0.0178435
-0.77898
-0.0170114
-0.632101
-0.0162293
-0.518113
-0.0154899
-0.431006
-0.014778
-0.366186
-0.0140372
-0.320227
-0.0132505
-0.290978
-0.276354
-0.0124307
0.108997
-1236.66
0.0845626
-1023.84
0.064316
-847.684
0.0475526
-701.864
0.0336757
-581.165
0.0221854
-481.267
0.0126721
-398.594
0.00479065
-330.188
-0.00173932
-273.6
-0.00715316
-226.805
-0.0116462
-188.126
-0.0153794
-156.181
-0.0184861
-129.824
-0.0210789
-108.113
-0.0232498
-90.2696
-0.0250781
-75.6561
-0.0266269
-63.7491
-0.0279536
-54.1222
-0.0291025
-46.4311
-0.0301118
-40.4004
-0.0310111
-35.8139
-0.0318224
-32.507
-0.0325495
-30.3601
-0.0331899
-29.2939
-0.0336969
-29.1594
-0.0338752
-23.2337
-0.033771
-18.5022
-0.0334418
-14.7271
-0.0329327
-11.7176
-0.0322795
-9.32081
-0.0315024
-7.4134
-0.0306135
-5.89647
-0.0296254
-4.69066
-0.028548
-3.73251
-0.0273975
-2.9714
-0.0261934
-2.36706
-0.0249607
-1.88742
-0.0237256
-1.50707
-0.0225124
-1.2058
-0.0213435
-0.967672
-0.0202349
-0.780088
-0.0191951
-0.633141
-0.018223
-0.519085
-0.0173078
-0.431921
-0.0164224
-0.367071
-0.0155001
-0.321149
-0.0145504
-0.291927
-0.27742
-0.013484
0.134694
-1236.62
0.105193
-1023.81
0.0807831
-847.659
0.0605905
-701.844
0.0438909
-581.148
0.0300732
-481.253
0.0186412
-398.583
0.00917532
-330.179
0.00133394
-273.592
-0.00516604
-226.798
-0.0105607
-188.121
-0.0150444
-156.176
-0.0187789
-129.82
-0.0218994
-108.109
-0.0245179
-90.2669
-0.0267294
-75.6539
-0.0286117
-63.7472
-0.0302334
-54.1206
-0.0316499
-46.4297
-0.0329089
-40.3991
-0.0340474
-35.8127
-0.0350974
-32.5059
-0.0360713
-30.3591
-0.0369608
-29.293
-0.0376971
-29.1586
-0.0379989
-23.2333
-0.0379261
-18.5023
-0.0375504
-14.7275
-0.0369311
-11.7183
-0.0361166
-9.32162
-0.0351366
-7.41438
-0.0340108
-5.8976
-0.0327579
-4.69192
-0.0313935
-3.73388
-0.0299407
-2.97286
-0.0284269
-2.36857
-0.0268833
-1.88897
-0.0253422
-1.50861
-0.0238328
-1.20731
-0.0223798
-0.969125
-0.0210004
-0.781468
-0.0197033
-0.634438
-0.0184871
-0.520301
-0.0173397
-0.433068
-0.016237
-0.368174
-0.0151506
-0.322236
-0.0141033
-0.292974
-0.278484
-0.0130399
0.16091
-1236.58
0.126277
-1023.78
0.097659
-847.631
0.0740152
-701.82
0.0544783
-581.128
0.0383301
-481.237
0.0249767
-398.569
0.0139278
-330.168
0.00477926
-273.583
-0.00280274
-226.791
-0.00909524
-188.115
-0.0143271
-156.171
-0.0186882
-129.816
-0.0223367
-108.106
-0.0254048
-90.2639
-0.0280037
-75.6513
-0.0302258
-63.745
-0.0321517
-54.1187
-0.0338474
-46.428
-0.03537
-40.3976
-0.036765
-35.8113
-0.0380698
-32.5046
-0.0392969
-30.3579
-0.0404458
-29.2919
-0.0414409
-29.1576
-0.0418913
-23.2329
-0.0418702
-18.5023
-0.0414669
-14.7279
-0.0407547
-11.719
-0.039794
-9.32258
-0.0386232
-7.41555
-0.0372686
-5.89895
-0.0357556
-4.69343
-0.0341059
-3.73553
-0.0323499
-2.97461
-0.0305229
-2.3704
-0.0286656
-1.89082
-0.0268194
-1.51045
-0.0250214
-1.20911
-0.0233034
-0.970843
-0.0216866
-0.783084
-0.0201802
-0.635944
-0.0187805
-0.521701
-0.0174714
-0.434377
-0.0162239
-0.369421
-0.014998
-0.323462
-0.0137895
-0.294183
-0.279748
-0.012525
0.187702
-1236.53
0.147835
-1023.74
0.114936
-847.598
0.08779
-701.793
0.0653865
-581.106
0.0468845
-481.218
0.0315993
-398.554
0.0189616
-330.155
0.00850359
-273.573
-0.000161429
-226.782
-0.0073525
-188.107
-0.0133332
-156.165
-0.0183219
-129.811
-0.0225016
-108.102
-0.0260238
-90.2603
-0.0290171
-75.6483
-0.0315881
-63.7424
-0.0338308
-54.1165
-0.0358222
-46.426
-0.0376297
-40.3958
-0.0393078
-35.8096
-0.0409025
-32.503
-0.0424346
-30.3563
-0.0438981
-29.2904
-0.0451993
-29.1563
-0.0458209
-23.2323
-0.0458504
-18.5023
-0.0453974
-14.7283
-0.0445542
-11.7198
-0.0433983
-9.32374
-0.0419823
-7.41697
-0.0403429
-5.90059
-0.0385156
-4.69526
-0.0365313
-3.73751
-0.0344304
-2.97671
-0.0322588
-2.37257
-0.0300661
-1.89302
-0.0279014
-1.51262
-0.025807
-1.2112
-0.0238172
-0.972833
-0.0219535
-0.784948
-0.0202246
-0.637673
-0.0186272
-0.523298
-0.0171487
-0.435856
-0.0157688
-0.370801
-0.0144597
-0.324771
-0.0132172
-0.295425
-0.281028
-0.0119375
0.215172
-1236.48
0.169946
-1023.69
0.132679
-847.561
0.101975
-701.762
0.0766668
-581.081
0.055792
-481.197
0.0385648
-398.537
0.0243309
-330.141
0.0125612
-273.561
0.00281306
-226.772
-0.00527615
-188.099
-0.0120056
-156.158
-0.0176235
-129.805
-0.0223369
-108.097
-0.0263183
-90.2564
-0.0297136
-75.6449
-0.032645
-63.7395
-0.0352191
-54.1139
-0.0375252
-46.4237
-0.0396414
-40.3937
-0.041632
-35.8077
-0.0435517
-32.5011
-0.0454243
-30.3545
-0.0472498
-29.2886
-0.0489198
-29.1547
-0.049756
-23.2314
-0.0498652
-18.5021
-0.04938
-14.7288
-0.0484133
-11.7208
-0.0470599
-9.32509
-0.0453866
-7.41864
-0.0434416
-5.90254
-0.0412716
-4.69743
-0.0389184
-3.73986
-0.0364347
-2.9792
-0.0338789
-2.37513
-0.0313132
-1.89558
-0.0287979
-1.51513
-0.0263843
-1.21361
-0.0241129
-0.975104
-0.0220073
-0.787054
-0.0200765
-0.639604
-0.0183157
-0.525059
-0.0167084
-0.437463
-0.015228
-0.372281
-0.013834
-0.326165
-0.0125121
-0.296747
-0.282364
-0.0111767
0.243421
-1236.41
0.192701
-1023.64
0.150981
-847.519
0.116657
-701.728
0.0884072
-581.052
0.0651391
-481.174
0.0459582
-398.518
0.0301281
-330.125
0.0170453
-273.548
0.00621649
-226.761
-0.00276772
-188.09
-0.0102437
-156.151
-0.0164901
-129.799
-0.0217392
-108.092
-0.0261844
-90.2519
-0.0299897
-75.6411
-0.0332927
-63.7362
-0.0362143
-54.111
-0.038856
-46.4211
-0.0413079
-40.3912
-0.0436448
-35.8053
-0.0459314
-32.4988
-0.0481992
-30.3522
-0.0504459
-29.2864
-0.0525442
-29.1526
-0.0536276
-23.2304
-0.0538233
-18.502
-0.0532911
-14.7293
-0.0521701
-11.7219
-0.0505787
-9.32668
-0.0486034
-7.42062
-0.0463087
-5.90483
-0.0437567
-4.69998
-0.0410034
-3.74262
-0.038117
-2.98209
-0.0351702
-2.37807
-0.0322374
-1.89852
-0.0293882
-1.51798
-0.0266802
-1.21632
-0.0241549
-0.97763
-0.0218357
-0.789373
-0.0197304
-0.641709
-0.0178331
-0.526956
-0.0161274
-0.439169
-0.0145808
-0.373828
-0.0131554
-0.32759
-0.0118218
-0.298081
-0.283708
-0.010478
0.272556
-1236.35
0.216198
-1023.58
0.169918
-847.473
0.131911
-701.69
0.100684
-581.021
0.0750019
-481.148
0.05386
-398.497
0.0364309
-330.108
0.0220415
-273.534
0.0101374
-226.749
0.000263296
-188.08
-0.0079556
-156.142
-0.0148287
-129.792
-0.0206141
-108.086
-0.0255274
-90.247
-0.0297509
-75.6369
-0.0334385
-63.7325
-0.0367259
-54.1077
-0.0397279
-46.4181
-0.0425471
-40.3884
-0.0452701
-35.8026
-0.0479725
-32.4961
-0.0506925
-30.3495
-0.053432
-29.2836
-0.0560431
-29.1499
-0.0574305
-23.229
-0.0577473
-18.5016
-0.0571842
-14.7299
-0.0559098
-11.7232
-0.0540684
-9.32852
-0.0517689
-7.42292
-0.0490943
-5.90751
-0.046125
-4.70295
-0.0429348
-3.74581
-0.03961
-2.98541
-0.0362406
-2.38144
-0.0329156
-1.90184
-0.0297166
-1.52118
-0.0267082
-1.21933
-0.0239349
-0.980403
-0.0214201
-0.791888
-0.0191699
-0.643959
-0.0171727
-0.528953
-0.0154043
-0.440937
-0.0138258
-0.375406
-0.0123872
-0.329029
-0.0110595
-0.299409
-0.285015
-0.00975217
0.302687
-1236.27
0.240526
-1023.52
0.18958
-847.422
0.147824
-701.648
0.113579
-580.987
0.085464
-481.12
0.0623567
-398.473
0.043333
-330.089
0.027643
-273.518
0.0146724
-226.736
0.00391661
-188.07
-0.00503808
-156.133
-0.0125339
-129.784
-0.0188555
-108.08
-0.0242405
-90.2416
-0.0288908
-75.6323
-0.0329771
-63.7284
-0.0366502
-54.104
-0.0400396
-46.4147
-0.0432612
-40.3852
-0.0464148
-35.7994
-0.0495881
-32.493
-0.0528284
-30.3463
-0.0561383
-29.2803
-0.0593477
-29.1467
-0.0610911
-23.2272
-0.0615508
-18.5012
-0.0609542
-14.7305
-0.0595058
-11.7246
-0.0573825
-9.33065
-0.0547215
-7.42558
-0.0516304
-5.9106
-0.0482127
-4.70637
-0.044564
-3.74946
-0.0407918
-2.98918
-0.0370048
-2.38523
-0.0333062
-1.90554
-0.0297875
-1.5247
-0.026517
-1.2226
-0.0235386
-0.983381
-0.0208724
-0.794554
-0.0185189
-0.646313
-0.0164604
-0.531012
-0.014661
-0.442737
-0.0130762
-0.376991
-0.0116468
-0.330458
-0.010339
-0.300716
-0.286302
-0.00905189
0.333924
-1236.19
0.265785
-1023.45
0.210059
-847.366
0.164482
-701.603
0.12718
-580.95
0.0966192
-481.09
0.0715436
-398.448
0.0509326
-330.068
0.0339536
-273.501
0.0199293
-226.722
0.0083042
-188.058
-0.001377
-156.124
-0.00948913
-129.776
-0.016345
-108.073
-0.0222049
-90.2358
-0.0272907
-75.6272
-0.0317909
-63.7239
-0.0358725
-54.0999
-0.03968
-46.4109
-0.0433446
-40.3815
-0.04698
-35.7958
-0.0506881
-32.4892
-0.054526
-30.3424
-0.0585005
-29.2763
-0.0624162
-29.1428
-0.0645877
-23.2251
-0.0652318
-18.5006
-0.0646186
-14.7311
-0.0629939
-11.7263
-0.0605724
-9.33307
-0.0575245
-7.42863
-0.0539874
-5.91414
-0.0500917
-4.71027
-0.0459595
-3.75359
-0.0417224
-2.99342
-0.0375097
-2.38944
-0.03344
-1.90961
-0.0296137
-1.52852
-0.0261024
-1.22611
-0.0229477
-0.986536
-0.020165
-0.797337
-0.0177459
-0.648732
-0.0156607
-0.533097
-0.0138655
-0.444532
-0.0123023
-0.378554
-0.0109136
-0.331847
-0.00965527
-0.301975
-0.28752
-0.00843726
0.366388
-1236.1
0.292085
-1023.38
0.231451
-847.305
0.18198
-701.553
0.14159
-580.909
0.108567
-481.057
0.0815307
-398.421
0.0593426
-330.046
0.0410931
-273.483
0.0260334
-226.707
0.0135553
-188.046
0.00316133
-156.113
-0.00555824
-129.768
-0.012944
-108.065
-0.0192811
-90.2294
-0.0248111
-75.6217
-0.0297414
-63.7189
-0.034256
-54.0954
-0.038516
-46.4066
-0.0426686
-40.3773
-0.0468436
-35.7916
-0.0511586
-32.4849
-0.0556818
-30.3379
-0.0604245
-29.2716
-0.0651647
-29.1381
-0.06784
-23.2224
-0.0687083
-18.4997
-0.0680895
-14.7317
-0.0662782
-11.7281
-0.0635351
-9.33582
-0.0600715
-7.43209
-0.0560602
-5.91815
-0.0516651
-4.71466
-0.0470395
-3.75822
-0.0423413
-2.99812
-0.0377209
-2.39406
-0.033311
-1.91402
-0.0292182
-1.53262
-0.0255131
-1.22982
-0.022231
-0.989818
-0.0193778
-0.80019
-0.0169339
-0.651176
-0.0148529
-0.535178
-0.0130832
-0.446301
-0.0115561
-0.380081
-0.0102088
-0.333194
-0.00899337
-0.30319
-0.288691
-0.00782216
0.400203
-1236
0.319533
-1023.3
0.253869
-847.24
0.200433
-701.5
0.156918
-580.866
0.121431
-481.021
0.0924395
-398.392
0.0686993
-330.022
0.0492021
-273.463
0.0331314
-226.691
0.0198231
-188.032
0.00873463
-156.102
-0.00057952
-129.758
-0.0084891
-108.057
-0.0153035
-90.2226
-0.0212862
-75.6157
-0.0266643
-63.7135
-0.0316391
-54.0905
-0.0363898
-46.4019
-0.0410814
-40.3727
-0.0458612
-35.7868
-0.0508645
-32.4799
-0.0561734
-30.3326
-0.0618049
-29.266
-0.0675081
-29.1324
-0.07078
-23.2191
-0.0719268
-18.4986
-0.0713258
-14.7323
-0.069329
-11.7301
-0.0662507
-9.3389
-0.0623503
-7.43599
-0.0578439
-5.92266
-0.0529339
-4.71957
-0.0478089
-3.76334
-0.0426556
-3.00327
-0.0376457
-2.39907
-0.0329244
-1.91874
-0.0286015
-1.53694
-0.0247432
-1.23367
-0.0213756
-0.993186
-0.0184907
-0.803074
-0.016053
-0.653613
-0.0140061
-0.537225
-0.0122804
-0.448027
-0.0108118
-0.38155
-0.00952076
-0.334486
-0.00836945
-0.304342
-0.28979
-0.00727122
0.435489
-1235.89
0.348236
-1023.21
0.277401
-847.169
0.219922
-701.442
0.173247
-580.819
0.135293
-480.983
0.104367
-398.361
0.0790965
-329.997
0.0583819
-273.442
0.0413306
-226.674
0.0272186
-188.018
0.0154577
-156.09
0.00556519
-129.748
-0.00285937
-108.049
-0.0101513
-90.2153
-0.0165955
-75.6092
-0.0224398
-63.7077
-0.0279052
-54.085
-0.0331895
-46.3966
-0.0384772
-40.3674
-0.0439354
-35.7814
-0.049719
-32.4742
-0.0559265
-30.3264
-0.0625817
-29.2593
-0.0694038
-29.1256
-0.0733761
-23.2151
-0.0748616
-18.4971
-0.0743049
-14.7329
-0.0721245
-11.7322
-0.0686988
-9.34232
-0.0643443
-7.44035
-0.0593281
-5.92768
-0.0538978
-4.725
-0.0482812
-3.76896
-0.042695
-3.00886
-0.0373306
-2.40444
-0.032343
-1.92373
-0.0278408
-1.54144
-0.0238804
-1.23764
-0.0204732
-0.996593
-0.0175967
-0.805951
-0.0151928
-0.656017
-0.0131984
-0.539219
-0.0115269
-0.449699
-0.0101169
-0.38296
-0.00887869
-0.335724
-0.00778038
-0.30544
-0.290835
-0.00673543
0.472383
-1235.77
0.378314
-1023.12
0.302165
-847.093
0.240567
-701.381
0.190711
-580.769
0.150293
-480.943
0.117453
-398.329
0.090691
-329.97
0.0687981
-273.421
0.0508041
-226.656
0.0359231
-188.003
0.023518
-156.078
0.0130676
-129.738
0.00413971
-108.04
-0.00362682
-90.2076
-0.0105411
-75.6023
-0.0168719
-63.7014
-0.0228605
-54.079
-0.0287258
-46.3907
-0.0346733
-40.3614
-0.040892
-35.7751
-0.0475597
-32.4675
-0.0547928
-30.3192
-0.0626253
-29.2515
-0.070744
-29.1174
-0.0755374
-23.2104
-0.0774356
-18.4952
-0.0769601
-14.7333
-0.0746078
-11.7346
-0.0708312
-9.3461
-0.0660141
-7.44517
-0.0604834
-5.93321
-0.0545373
-4.73095
-0.0484467
-3.77505
-0.042458
-3.01485
-0.036781
-2.41012
-0.031576
-1.92893
-0.0269449
-1.54607
-0.0229301
-1.24165
-0.0195257
-0.999997
-0.0166877
-0.808789
-0.0143449
-0.65836
-0.0124165
-0.541148
-0.0108164
-0.451299
-0.00947042
-0.384306
-0.0083003
-0.336894
-0.00726346
-0.306477
-0.291818
-0.00628052
0.511027
-1235.65
0.409895
-1023.02
0.328285
-847.011
0.262495
-701.315
0.209433
-580.716
0.166564
-480.9
0.131847
-398.294
0.103635
-329.942
0.0806126
-273.398
0.0617231
-226.637
0.0461151
-187.988
0.0331004
-156.065
0.0221176
-129.727
0.0127021
-108.031
0.00446463
-90.1993
-0.00292735
-75.5949
-0.0097661
-63.6945
-0.016314
-54.0725
-0.0228126
-46.3842
-0.0294904
-40.3548
-0.0365616
-35.7681
-0.0442286
-32.4598
-0.0526302
-30.3108
-0.0618115
-29.2423
-0.071427
-29.1078
-0.0771786
-23.2046
-0.0795746
-18.4928
-0.0792265
-14.7337
-0.0767207
-11.7371
-0.072597
-9.35023
-0.0673179
-7.45044
-0.0612782
-5.93925
-0.0548333
-4.73739
-0.0482993
-3.78159
-0.0419514
-3.0212
-0.0360146
-2.41605
-0.0306487
-1.9343
-0.0259439
-1.55078
-0.0219232
-1.24567
-0.0185593
-1.00336
-0.015789
-0.811559
-0.0135241
-0.660625
-0.0116747
-0.542997
-0.0101507
-0.452823
-0.0088722
-0.385585
-0.00776712
-0.337999
-0.0067871
-0.307457
-0.292748
-0.00585718
0.551561
-1235.51
0.443114
-1022.91
0.355889
-846.924
0.285832
-701.245
0.229546
-580.66
0.184249
-480.855
0.1477
-398.257
0.118095
-329.912
0.0940017
-273.373
0.0742729
-226.618
0.0579881
-187.971
0.0444052
-156.051
0.0329213
-129.715
0.0230372
-108.021
0.0143355
-90.1906
0.00645787
-75.587
-0.000910826
-63.6872
-0.00805718
-54.0653
-0.0152466
-46.377
-0.0227334
-40.3473
-0.0307592
-35.76
-0.0395547
-32.451
-0.0492836
-30.301
-0.0600064
-29.2316
-0.0713442
-29.0965
-0.0782102
-23.1977
-0.0812048
-18.4898
-0.0810421
-14.7338
-0.078413
-11.7397
-0.0739574
-9.35469
-0.0682282
-7.45617
-0.0616981
-5.94578
-0.0547843
-4.74431
-0.0478494
-3.78852
-0.0411957
-3.02785
-0.035058
-2.42219
-0.0295905
-1.93977
-0.024865
-1.5555
-0.0208819
-1.24965
-0.0175904
-1.00665
-0.0149077
-0.814242
-0.0127358
-0.662797
-0.0109689
-0.544764
-0.00953028
-0.454261
-0.00832015
-0.386796
-0.00729297
-0.339025
-0.00638338
-0.308366
-0.293603
-0.00552743
0.594147
-1235.37
0.478108
-1022.79
0.385106
-846.831
0.310712
-701.17
0.251198
-580.6
0.203504
-480.807
0.165176
-398.219
0.134247
-329.881
0.109154
-273.348
0.088653
-226.597
0.0717506
-187.954
0.0576489
-156.037
0.0457006
-129.704
0.0353716
-108.01
0.0262144
-90.1815
0.017845
-75.5786
0.00992189
-63.6793
0.0021347
-54.0575
-0.00580917
-46.3691
-0.0141913
-40.3389
-0.0232846
-35.7509
-0.0333514
-32.441
-0.0445849
-30.2898
-0.0570639
-29.2191
-0.0703759
-29.0832
-0.078533
-23.1896
-0.0822426
-18.4861
-0.0823374
-14.7337
-0.0796271
-11.7424
-0.0748671
-9.35944
-0.0687134
-7.46233
-0.0617252
-5.95277
-0.0543863
-4.75165
-0.0471057
-3.7958
-0.0402094
-3.03475
-0.0339365
-2.42846
-0.0284289
-1.94527
-0.0237346
-1.5602
-0.0198276
-1.25356
-0.0166402
-1.00984
-0.0140585
-0.816824
-0.011991
-0.664864
-0.010306
-0.546449
-0.00894575
-0.455621
-0.00778862
-0.387953
-0.00681312
-0.340001
-0.00593488
-0.309245
-0.294436
-0.00510225
0.638944
-1235.22
0.515025
-1022.67
0.416085
-846.732
0.337286
-701.092
0.274538
-580.538
0.224492
-480.757
0.184457
-398.179
0.152281
-329.849
0.126271
-273.322
0.105077
-226.576
0.0876262
-187.937
0.0730629
-156.023
0.0606937
-129.691
0.049948
-108
0.0403469
-90.1719
0.0314791
-75.5698
0.0229768
-63.6708
0.0145027
-54.049
0.00573568
-46.3603
-0.00363715
-40.3296
-0.0139226
-35.7407
-0.025419
-32.4295
-0.0383534
-30.2769
-0.0528265
-29.2046
-0.0683941
-29.0676
-0.0780418
-23.1799
-0.0826019
-18.4815
-0.083042
-14.7333
-0.0803079
-11.7452
-0.0752862
-9.36447
-0.0687486
-7.46886
-0.0613505
-5.96016
-0.0536445
-4.75935
-0.0460851
-3.80336
-0.0390174
-3.04182
-0.0326783
-2.4348
-0.0271899
-1.95076
-0.0225737
-1.56481
-0.0187784
-1.25736
-0.0157114
-1.01291
-0.0132515
-0.819283
-0.01129
-0.666826
-0.0097076
-0.548032
-0.00843024
-0.456898
-0.00735866
-0.389024
-0.00645291
-0.340906
-0.00564727
-0.31005
-0.295193
-0.00489092
0.68612
-1235.05
0.554021
-1022.54
0.448973
-846.627
0.365703
-701.008
0.299734
-580.472
0.247387
-480.705
0.205725
-398.137
0.172401
-329.816
0.145569
-273.296
0.12377
-226.554
0.105852
-187.919
0.0908928
-156.008
0.0781531
-129.678
0.0670234
-107.989
0.0569933
-90.1619
0.047622
-75.5604
0.0385138
-63.6617
0.0293031
-54.0398
0.019637
-46.3506
0.00916986
-40.3191
-0.00244442
-35.7291
-0.0155445
-32.4164
-0.030396
-30.262
-0.0471271
-29.1879
-0.0652625
-29.0495
-0.0766245
-23.1686
-0.0821905
-18.476
-0.0830822
-14.7324
-0.0803988
-11.7479
-0.0751752
-9.36969
-0.0683116
-7.47573
-0.0605677
-5.96791
-0.0525669
-4.76735
-0.0448064
-3.81112
-0.0376451
-3.04898
-0.0313099
-2.44114
-0.0258984
-1.95617
-0.0214027
-1.56931
-0.0177454
-1.26101
-0.0148166
-1.01584
-0.0124801
-0.82162
-0.0106223
-0.668683
-0.00912371
-0.54953
-0.00790537
-0.458117
-0.00688125
-0.390049
-0.00600171
-0.341786
-0.00521746
-0.310835
-0.29593
-0.00448042
0.735859
-1234.87
0.59526
-1022.39
0.483932
-846.516
0.396128
-700.92
0.32695
-580.403
0.272376
-480.65
0.229182
-398.094
0.194817
-329.781
0.167272
-273.268
0.144973
-226.532
0.126676
-187.901
0.111397
-155.993
0.0983446
-129.665
0.0868695
-107.977
0.0764276
-90.1514
0.0665485
-75.5505
0.0568066
-63.652
0.0468053
-54.0298
0.036159
-46.34
0.0244837
-40.3074
0.0113913
-35.716
-0.00350285
-32.4015
-0.0205092
-30.245
-0.0397884
-29.1686
-0.0608374
-29.0285
-0.0741638
-23.1552
-0.080914
-18.4692
-0.0823839
-14.7309
-0.0798457
-11.7504
-0.0744992
-9.37504
-0.0673864
-7.48284
-0.0593777
-5.97592
-0.0511685
-4.77556
-0.0432943
-3.819
-0.0361212
-3.05615
-0.0298599
-2.4474
-0.0245782
-1.96146
-0.0202386
-1.57365
-0.0167414
-1.26451
-0.013962
-1.01861
-0.0117655
-0.823816
-0.0100215
-0.670428
-0.00864089
-0.550911
-0.00750777
-0.45925
-0.00658578
-0.390971
-0.00577258
-0.342599
-0.00506505
-0.311542
-0.296588
-0.00440653
0.78835
-1234.69
0.638916
-1022.25
0.521128
-846.398
0.428732
-700.828
0.356374
-580.33
0.299647
-480.593
0.255034
-398.05
0.21975
-329.746
0.191618
-273.24
0.168933
-226.509
0.150361
-187.882
0.134847
-155.977
0.121546
-129.652
0.109769
-107.965
0.098936
-90.1406
0.0885455
-75.5401
0.0781402
-63.6415
0.0672913
-54.0189
0.0555756
-46.3283
0.0425694
-40.2944
0.0278361
-35.7012
0.010941
-32.3846
-0.00847914
-30.2256
-0.0306251
-29.1464
-0.0549687
-29.0041
-0.0705384
-23.1397
-0.0786753
-18.4611
-0.080873
-14.7287
-0.0785961
-11.7527
-0.0732271
-9.3804
-0.0659614
-7.4901
-0.0577862
-5.98409
-0.0494675
-4.78388
-0.0415745
-3.82689
-0.0344743
-3.06325
-0.0283552
-2.45352
-0.0232511
-1.96656
-0.0190946
-1.57781
-0.0157752
-1.26783
-0.0131345
-1.02126
-0.0110629
-0.825888
-0.00939775
-0.672093
-0.00808532
-0.552223
-0.00697983
-0.460355
-0.00608705
-0.391863
-0.00527161
-0.343415
-0.00457332
-0.312241
-0.297239
-0.0039223
0.843789
-1234.49
0.685172
-1022.09
0.560739
-846.273
0.463695
-700.731
0.388189
-580.255
0.329405
-480.534
0.283497
-398.004
0.247432
-329.71
0.218849
-273.211
0.195909
-226.486
0.177175
-187.863
0.161519
-155.961
0.148043
-129.639
0.136012
-107.953
0.124813
-90.1294
0.113908
-75.5291
0.102809
-63.6305
0.0910506
-54.0072
0.0781704
-46.3154
0.0637
-40.2799
0.0471502
-35.6847
0.0280294
-32.3655
0.0059144
-30.2035
-0.0194448
-29.1211
-0.0475019
-28.9761
-0.0656245
-23.1216
-0.0753773
-18.4513
-0.0784768
-14.7256
-0.0766019
-11.7546
-0.0713335
-9.38567
-0.0640319
-7.4974
-0.0558051
-5.99232
-0.0474878
-4.7922
-0.0396774
-3.8347
-0.0327356
-3.07019
-0.0268228
-2.45943
-0.0219414
-1.97144
-0.0179988
-1.58175
-0.0148614
-1.27097
-0.0123799
-1.02374
-0.0104252
-0.827842
-0.00886955
-0.673648
-0.00763207
-0.553461
-0.0066129
-0.461374
-0.00577791
-0.392699
-0.00503788
-0.344154
-0.00440862
-0.31287
-0.297828
-0.00381998
0.902393
-1234.27
0.734219
-1021.92
0.60295
-846.142
0.501204
-700.629
0.422594
-580.176
0.361853
-480.474
0.31479
-397.957
0.278099
-329.673
0.249218
-273.182
0.226163
-226.463
0.207391
-187.845
0.191698
-155.946
0.178126
-129.625
0.165897
-107.941
0.154357
-90.1179
0.142937
-75.5177
0.131111
-63.6186
0.118378
-53.9944
0.104231
-46.3012
0.0881536
-40.2638
0.0695984
-35.6662
0.0480098
-32.3439
0.0228963
-30.1783
-0.00605129
-29.0921
-0.0382789
-28.9438
-0.0592972
-23.1005
-0.0709233
-18.4397
-0.0751255
-14.7214
-0.0738187
-11.7559
-0.068798
-9.39069
-0.0615982
-7.5046
-0.0534504
-6.00046
-0.0452552
-4.80039
-0.0376321
-3.84232
-0.030932
-3.07689
-0.0252872
-2.46508
-0.02067
-1.97606
-0.0169641
-1.58545
-0.0140265
-1.2739
-0.0116918
-1.02607
-0.00983355
-0.8297
-0.00832531
-0.675156
-0.00708984
-0.554696
-0.00604559
-0.462418
-0.00515887
-0.393585
-0.00436265
-0.344951
-0.00368064
-0.313552
-0.298466
-0.00304239
0.964393
-1234.05
0.786287
-1021.74
0.647991
-846.004
0.541497
-700.523
0.459836
-580.094
0.397265
-480.411
0.349201
-397.909
0.312051
-329.636
0.28304
-273.153
0.260027
-226.44
0.241355
-187.826
0.225738
-155.93
0.212158
-129.611
0.199791
-107.929
0.187942
-90.106
0.176005
-75.5057
0.16342
-63.6061
0.149642
-53.9806
0.13412
-46.2857
0.116284
-40.246
0.0955213
-35.6454
0.0712065
-32.3196
0.0427699
-30.1499
0.00983019
-29.0592
-0.027063
-28.907
-0.0513548
-23.0762
-0.0651428
-18.4259
-0.0706762
-14.7159
-0.0701302
-11.7564
-0.0655285
-9.39528
-0.0585882
-7.51154
-0.0506643
-6.00839
-0.0427194
-4.80834
-0.0353889
-3.84965
-0.0290105
-3.08327
-0.0236887
-2.4704
-0.0193727
-1.98037
-0.0159338
-1.58889
-0.0132224
-1.27662
-0.0110879
-1.02821
-0.00939214
-0.831396
-0.00804809
-0.6765
-0.0069357
-0.555809
-0.00603192
-0.463322
-0.00523377
-0.394384
-0.0045471
-0.345637
-0.00393205
-0.314167
-0.299068
-0.00332986
1.03002
-1233.81
0.841568
-1021.55
0.696031
-845.858
0.584734
-700.411
0.500081
-580.01
0.435799
-480.347
0.386897
-397.86
0.34947
-329.599
0.320506
-273.124
0.297699
-226.417
0.279272
-187.808
0.263853
-155.915
0.250359
-129.598
0.237916
-107.916
0.22579
-90.0939
0.213337
-75.4933
0.199956
-63.5927
0.18506
-53.9657
0.168048
-46.2687
0.148291
-40.2262
0.125107
-35.6222
0.0977896
-32.2922
0.0656832
-30.1178
0.0283203
-29.0218
-0.0137715
-28.8649
-0.0417509
-23.0482
-0.0580235
-18.4096
-0.0651466
-14.7088
-0.0655817
-11.756
-0.0615942
-9.39927
-0.0550897
-7.51804
-0.0475467
-6.01593
-0.0399847
-4.8159
-0.0330509
-3.85659
-0.0270676
-3.08925
-0.0221153
-2.47535
-0.0181243
-1.98437
-0.014968
-1.59205
-0.0124673
-1.27912
-0.0105065
-1.03017
-0.00891867
-0.832984
-0.00765633
-0.677762
-0.00659255
-0.556872
-0.0057294
-0.464185
-0.00495985
-0.395153
-0.00431535
-0.346282
-0.00370816
-0.314774
-0.299636
-0.00314015
1.09949
-1233.55
0.90026
-1021.35
0.747257
-845.705
0.63109
-700.295
0.543494
-579.922
0.477631
-480.281
0.428062
-397.81
0.39054
-329.561
0.361809
-273.096
0.33938
-226.395
0.32135
-187.79
0.306254
-155.9
0.292943
-129.585
0.280492
-107.904
0.268123
-90.0815
0.255152
-75.4803
0.240937
-63.5785
0.224845
-53.9496
0.20622
-46.2501
0.184371
-40.2044
0.158538
-35.5964
0.127928
-32.2616
0.0917849
-30.0816
0.0495403
-28.9796
0.0016814
-28.817
-0.0304377
-23.0161
-0.0495554
-18.3905
-0.0585595
-14.6998
-0.0602242
-11.7543
-0.0570694
-9.40242
-0.0511951
-7.52391
-0.0441999
-6.02293
-0.0371576
-4.82294
-0.0307219
-3.86302
-0.0251997
-3.09478
-0.0206571
-2.47989
-0.017019
-1.988
-0.0141492
-1.59492
-0.0119011
-1.28136
-0.0101348
-1.03193
-0.0087425
-0.834376
-0.00762011
-0.678885
-0.00670773
-0.557785
-0.00592644
-0.464967
-0.00524423
-0.395835
-0.00462191
-0.346905
-0.00400517
-0.315391
-0.300232
-0.0034094
1.17311
-1233.28
0.962623
-1021.14
0.801911
-845.544
0.680812
-700.174
0.59033
-579.832
0.52302
-480.214
0.47296
-397.76
0.435539
-329.524
0.407235
-273.067
0.385367
-226.373
0.367893
-187.772
0.353253
-155.885
0.340228
-129.572
0.327838
-107.891
0.315262
-90.069
0.301772
-75.4668
0.286684
-63.5634
0.269314
-53.9322
0.248949
-46.2297
0.22483
-40.1802
0.19611
-35.5677
0.161902
-32.2274
0.121336
-30.0411
0.0737285
-28.932
0.0194996
-28.7628
-0.0172451
-22.9794
-0.039606
-18.3681
-0.0508181
-14.6886
-0.0539892
-11.7511
-0.0519078
-9.4045
-0.0468717
-7.52895
-0.0405984
-6.0292
-0.0342122
-4.82933
-0.0283699
-3.86887
-0.0233694
-3.09978
-0.0192683
-2.48399
-0.0159879
-1.99128
-0.0134001
-1.59751
-0.0113445
-1.28342
-0.00970007
-1.03358
-0.00834977
-0.835726
-0.00722779
-0.680007
-0.00626596
-0.558746
-0.00543706
-0.465796
-0.00470003
-0.396572
-0.00403385
-0.347571
-0.00343277
-0.315992
-0.300811
-0.00285419
1.25112
-1232.99
1.0289
-1020.92
0.860225
-845.376
0.734113
-700.048
0.640799
-579.738
0.572174
-480.145
0.521802
-397.71
0.484684
-329.487
0.457006
-273.04
0.435883
-226.352
0.419131
-187.755
0.405083
-155.871
0.39245
-129.559
0.380193
-107.879
0.367445
-90.0562
0.353434
-75.4527
0.337431
-63.5474
0.318699
-53.9135
0.296461
-46.2075
0.269885
-40.1536
0.238032
-35.5359
0.199908
-32.1893
0.15452
-29.9957
0.101044
-28.8785
0.0398113
-28.7015
-0.0020733
-22.9375
-0.0281127
-18.3421
-0.0418997
-14.6748
-0.0468844
-11.7462
-0.0461371
-9.40524
-0.0421586
-7.53293
-0.0367843
-6.03457
-0.031187
-4.83492
-0.0260281
-3.87402
-0.0215992
-3.10421
-0.0179633
-2.48763
-0.0150588
-1.99419
-0.0127748
-1.59979
-0.0109885
-1.28521