/*--------------------------------*- C++ -*----------------------------------*\
  =========                 |
  \\      /  F ield         | OpenFOAM: The Open Source CFD Toolbox
   \\    /   O peration     | Website:  https://openfoam.org
    \\  /    A nd           | Version:  10
     \\/     M anipulation  |
\*---------------------------------------------------------------------------*/
FoamFile
{
    format      ascii;
    class       volVectorField;
    location    "10";
    object      U;
}
// * * * * * * * * * * * * * * * * * * * * * * * * * * * * * * * * * * * * * //

dimensions      [0 1 -1 0 0 0 0];

internalField   nonuniform List<vector> 
38016
(
(52.0843 -0.00196993 3.32691e-25)
(52.0845 -0.000440041 1.47374e-25)
(52.0853 -0.000472028 -1.77926e-25)
(52.086 -0.000316807 0)
(52.0866 -0.000249547 0)
(52.0873 -0.000209622 0)
(52.0882 -0.000186169 -3.98667e-25)
(52.0892 -0.00016712 -4.22365e-21)
(52.0903 -0.000142222 8.47278e-25)
(52.0917 -0.000114663 -1.01937e-24)
(52.0933 -6.16674e-05 -3.30557e-21)
(52.0952 5.23357e-05 4.77991e-25)
(52.0974 0.00027343 -3.5399e-21)
(52.0999 0.000662409 -5.10445e-21)
(52.1025 0.00129155 3.63654e-21)
(52.1051 0.00229058 0)
(52.1075 0.0037543 0)
(52.1092 0.0058823 0)
(52.1096 0.00891167 -6.50296e-24)
(52.1081 0.0131411 7.39476e-24)
(52.1034 0.0190398 -2.47933e-21)
(52.0942 0.0273999 2.99098e-21)
(52.0774 0.0400094 -3.59013e-21)
(52.0523 0.0579324 1.72367e-23)
(51.9948 0.0876624 -4.74422e-21)
(51.9236 0.134636 6.01268e-26)
(51.8273 0.197249 -3.59896e-21)
(51.7111 0.273406 4.4131e-23)
(51.5759 0.361793 8.65774e-26)
(51.4275 0.45987 0)
(51.2718 0.567199 1.17072e-25)
(51.1133 0.683974 2.0423e-22)
(50.9561 0.810305 -9.21431e-21)
(50.8025 0.94623 0)
(50.6547 1.09132 0)
(50.5141 1.2442 0)
(50.3816 1.40276 0)
(50.2579 1.56391 -2.90027e-21)
(50.1432 1.72448 -1.94465e-21)
(50.0378 1.88166 -8.82506e-23)
(49.9416 2.03234 -9.08957e-23)
(49.855 2.17417 6.00183e-21)
(49.776 2.30551 -1.26055e-21)
(49.7024 2.42584 1.53814e-21)
(49.6305 2.53557 0)
(49.5471 2.6545 0)
(49.4717 2.68381 -9.25678e-21)
(49.3161 2.83198 8.56435e-21)
(52.0843 -0.00201371 -2.21731e-20)
(52.0845 -0.000456563 5.933e-25)
(52.0853 -0.000493292 1.2798e-20)
(52.086 -0.000337768 0)
(52.0866 -0.000272212 0)
(52.0873 -0.000235049 -8.2589e-21)
(52.0882 -0.000215366 2.4978e-26)
(52.0891 -0.000201329 4.25416e-21)
(52.0903 -0.000182951 -6.19683e-21)
(52.0917 -0.00016395 -6.25715e-25)
(52.0933 -0.000121492 -3.33026e-21)
(52.0952 -2.00036e-05 -1.35078e-24)
(52.0974 0.000187391 3.61994e-21)
(52.0998 0.000563064 5.24291e-21)
(52.1025 0.00118317 -3.75262e-21)
(52.1051 0.0021819 1.05754e-20)
(52.1074 0.00366671 7.32616e-21)
(52.1091 0.00584706 -1.0418e-23)
(52.1095 0.00897707 -1.5738e-24)
(52.1079 0.0133889 1.57715e-23)
(52.103 0.0195884 8.01572e-21)
(52.0933 0.0283955 -9.77971e-21)
(52.0748 0.0416488 4.00499e-21)
(52.044 0.0602545 8.99707e-21)
(52.0016 0.0893566 -5.21611e-21)
(51.9289 0.137518 -2.06185e-23)
(51.8304 0.202616 3.83386e-21)
(51.7119 0.282969 1.38095e-20)
(51.5752 0.37729 -1.20425e-20)
(51.4264 0.482998 0)
(51.2717 0.599281 0)
(51.1157 0.725957 1.23413e-20)
(50.9619 0.862879 8.99879e-21)
(50.8127 1.00981 -1.30723e-20)
(50.6697 1.16587 0)
(50.534 1.3292 1.25774e-20)
(50.4064 1.49732 0)
(50.2873 1.6668 2.78301e-21)
(50.1768 1.83417 -3.77163e-21)
(50.0752 1.99636 4.69398e-21)
(49.9826 2.15024 -6.15416e-21)
(49.8984 2.29361 -1.91105e-21)
(49.8211 2.42506 -1.226e-21)
(49.7486 2.54456 1.49397e-21)
(49.6778 2.65388 0)
(49.5976 2.77826 0)
(49.5454 2.79934 -6.61078e-21)
(49.4087 2.93834 8.1371e-21)
(52.0843 -0.00205671 -2.59233e-22)
(52.0845 -0.000475261 0)
(52.0853 -0.000516195 -2.56615e-20)
(52.086 -0.000360474 0)
(52.0866 -0.00029641 0)
(52.0873 -0.000261635 8.25671e-21)
(52.0882 -0.000245086 -1.99209e-25)
(52.0891 -0.000234999 3.12686e-25)
(52.0903 -0.000221032 6.19437e-21)
(52.0917 -0.000207146 -6.22918e-25)
(52.0933 -0.000169493 6.68676e-21)
(52.0952 -7.1278e-05 9.80652e-21)
(52.0974 0.000135745 -1.43564e-20)
(52.0999 0.000517344 -1.03515e-23)
(52.1026 0.00115535 6.76144e-24)
(52.1052 0.00219097 -1.05608e-20)
(52.1077 0.0037423 -7.31773e-21)
(52.1094 0.00604125 1.27701e-24)
(52.1099 0.00937234 -1.20794e-23)
(52.1085 0.0141255 0)
(52.1039 0.0209129 -1.58958e-20)
(52.0948 0.0308239 6.48443e-21)
(52.0778 0.0461945 -7.82203e-21)
(52.0511 0.0694432 -1.77926e-20)
(51.9971 0.106373 1.1258e-22)
(51.9231 0.161859 0)
(51.8227 0.235356 1.51019e-20)
(51.7015 0.324304 -1.34948e-20)
(51.5615 0.427075 1.17521e-20)
(51.4094 0.54058 0)
(51.2517 0.663978 5.55778e-22)
(51.0933 0.797115 1.07795e-20)
(50.938 0.939915 2.25114e-21)
(50.788 1.09219 9.50784e-21)
(50.645 1.253 -1.59005e-20)
(50.5101 1.42042 -1.22156e-20)
(50.3835 1.59186 0)
(50.2658 1.76377 -1.11052e-20)
(50.1568 1.93258 3.70409e-21)
(50.0565 2.09526 -4.60544e-21)
(49.965 2.24865 1.20253e-20)
(49.8819 2.39075 -7.47028e-21)
(49.8059 2.52087 1.17893e-20)
(49.7348 2.63973 -2.66464e-21)
(49.666 2.75101 1.48629e-22)
(49.5922 2.87344 -1.94532e-20)
(49.5649 2.90298 3.34507e-23)
(49.4785 3.00284 -1.60607e-20)
(52.0844 -0.00210125 6.78118e-20)
(52.0845 -0.000494762 0)
(52.0853 -0.000539481 1.28619e-20)
(52.086 -0.000383241 2.0052e-24)
(52.0866 -0.000320565 2.36924e-20)
(52.0873 -0.000288177 -5.55169e-25)
(52.0882 -0.000274865 -1.17698e-20)
(52.0891 -0.000268986 0)
(52.0903 -0.000260076 -1.22934e-20)
(52.0917 -0.000252588 0)
(52.0933 -0.000222504 1.32635e-20)
(52.0952 -0.00013287 -9.807e-21)
(52.0974 6.45976e-05 1.43536e-20)
(52.0999 0.000436191 4.68779e-24)
(52.1025 0.00106486 1.48554e-20)
(52.1051 0.00209307 2.09951e-20)
(52.1075 0.00364113 -1.53723e-23)
(52.1092 0.00594255 1.81019e-23)
(52.1096 0.00928295 0)
(52.1081 0.014047 -1.67519e-20)
(52.1033 0.020818 2.10614e-20)
(52.0941 0.0305769 -1.27556e-20)
(52.0769 0.0454009 2.32215e-20)
(52.05 0.0664125 8.86903e-21)
(52.0018 0.100882 1.02328e-20)
(51.9327 0.158151 8.01251e-23)
(51.8385 0.235962 -1.87593e-22)
(51.7251 0.332345 -2.6949e-20)
(51.5929 0.445473 2.37233e-20)
(51.4477 0.572004 0)
(51.2953 0.710637 0)
(51.1401 0.860798 2.11462e-22)
(50.9859 1.02214 -1.79095e-20)
(50.8353 1.19422 0)
(50.6902 1.37576 1.77847e-20)
(50.5522 1.56431 0)
(50.4222 1.75686 0)
(50.3007 1.94962 1.09256e-20)
(50.1877 2.13875 -7.11458e-21)
(50.0834 2.32102 -9.29306e-21)
(49.9872 2.4935 1.17485e-20)
(49.8988 2.65451 7.54449e-21)
(49.817 2.80342 1.87877e-20)
(49.7408 2.94139 -2.2482e-20)
(49.6683 3.07237 0)
(49.5967 3.20951 -4.82565e-23)
(49.5598 3.24907 -3.63291e-20)
(49.4746 3.37919 3.61426e-20)
(52.0843 -0.00214706 -4.53834e-20)
(52.0845 -0.000514274 -2.41546e-24)
(52.0853 -0.000562902 2.59953e-20)
(52.086 -0.00040618 -1.71625e-20)
(52.0866 -0.000344856 -2.36933e-20)
(52.0873 -0.000314789 -1.64706e-20)
(52.0882 -0.000304685 -1.17167e-20)
(52.0891 -0.000302976 0)
(52.0903 -0.000298967 1.22946e-20)
(52.0917 -0.000297496 -2.53721e-25)
(52.0933 -0.000273607 -1.32615e-20)
(52.0952 -0.000189599 -2.189e-24)
(52.0974 4.10615e-06 0)
(52.0999 0.000377007 5.60989e-24)
(52.1026 0.00101788 -1.48655e-20)
(52.1053 0.00207626 -2.10006e-20)
(52.1077 0.00368666 -1.4492e-20)
(52.1094 0.00610463 1.9568e-20)
(52.11 0.00964931 0)
(52.1086 0.01477 3.34316e-20)
(52.1039 0.0221637 -1.05029e-20)
(52.0946 0.0330726 1.27892e-20)
(52.0767 0.0501063 -3.07571e-20)
(52.0468 0.0759828 -3.65354e-23)
(51.9974 0.117208 3.67531e-23)
(51.922 0.181058 7.92233e-23)
(51.8203 0.266756 -2.97805e-20)
(51.6985 0.371757 2.70363e-20)
(51.5588 0.494151 3.22772e-23)
(51.4079 0.63036 0)
(51.2524 0.779125 -1.11182e-21)
(51.0971 0.939954 -2.27867e-20)
(50.9456 1.11252 1.78538e-20)
(50.8005 1.29629 0)
(50.6631 1.48977 0)
(50.5344 1.69035 -2.48043e-20)
(50.4143 1.89464 8.61963e-21)
(50.3037 2.09841 -1.07699e-20)
(50.2021 2.29742 -4.10442e-22)
(50.1098 2.48813 1.84894e-20)
(50.027 2.6673 -1.19983e-20)
(49.9531 2.83304 -1.5036e-20)
(49.8877 2.98505 -3.76324e-20)
(49.8298 3.1244 5.06942e-20)
(49.7782 3.2546 5.40477e-20)
(49.7322 3.38077 -6.16212e-20)
(49.7165 3.43338 -4.29076e-21)
(49.6249 3.56167 -4.56976e-21)
(52.0844 -0.00219667 0)
(52.0846 -0.000534904 0)
(52.0853 -0.000587575 -2.59919e-20)
(52.086 -0.000430045 1.71611e-20)
(52.0866 -0.000370021 0)
(52.0874 -0.000342305 1.64711e-20)
(52.0882 -0.000335414 2.34891e-20)
(52.0892 -0.000337852 -9.53754e-25)
(52.0903 -0.000338704 0)
(52.0917 -0.000343197 0)
(52.0933 -0.000325763 -2.63118e-20)
(52.0952 -0.000247977 0)
(52.0974 -5.947e-05 0)
(52.0999 0.000311325 -2.06138e-20)
(52.1026 0.000956689 -2.95347e-20)
(52.1052 0.00203065 2.08728e-20)
(52.1076 0.00367409 1.44805e-20)
(52.1094 0.00615388 -3.90369e-20)
(52.1099 0.00980279 -2.38708e-23)
(52.1085 0.0150896 -1.66454e-20)
(52.104 0.0227304 2.07076e-20)
(52.0951 0.033987 0)
(52.0785 0.0514065 1.53013e-20)
(52.0534 0.0771304 0)
(52.0028 0.119742 0)
(51.9345 0.188913 -7.85257e-23)
(51.8409 0.282915 4.3989e-20)
(51.7278 0.39934 -2.66879e-20)
(51.5958 0.535953 -2.36611e-20)
(51.4505 0.688479 0)
(51.2986 0.855112 -3.08203e-20)
(51.1448 1.0349 -1.40565e-21)
(50.9931 1.22713 -3.86413e-20)
(50.8467 1.43095 -1.94755e-20)
(50.7076 1.64449 -9.09927e-21)
(50.5775 1.86461 5.57027e-20)
(50.4569 2.08744 -8.67502e-21)
(50.3463 2.30854 1.0836e-20)
(50.2453 2.52347 1.46065e-20)
(50.1539 2.72864 -2.85422e-20)
(50.0711 2.92103 3.56409e-20)
(49.9966 3.09901 3.05192e-20)
(49.9299 3.26208 -4.64868e-20)
(49.8706 3.41102 -5.66672e-21)
(49.818 3.54794 5.42703e-20)
(49.7723 3.67318 -5.79792e-20)
(49.7498 3.73128 4.27636e-21)
(49.6926 3.86877 4.55274e-21)
(52.0843 -0.0022468 -5.77463e-24)
(52.0845 -0.000555602 0)
(52.0853 -0.000612451 2.62658e-20)
(52.086 -0.000454214 -4.05703e-24)
(52.0866 -0.000395523 3.13797e-24)
(52.0873 -0.000370194 -5.99856e-24)
(52.0882 -0.000366646 -2.33779e-20)
(52.0891 -0.000373433 3.33859e-20)
(52.0903 -0.000379473 0)
(52.0917 -0.000390358 -3.5743e-20)
(52.0933 -0.000379807 2.63114e-20)
(52.0952 -0.000308798 2.65004e-24)
(52.0974 -0.000125915 -3.18776e-24)
(52.0999 0.000242935 2.06141e-20)
(52.1026 0.000894576 2.95276e-20)
(52.1052 0.00198876 -2.08532e-20)
(52.1077 0.00367746 -1.31876e-23)
(52.1095 0.00624412 1.94826e-20)
(52.11 0.0100472 2.37756e-23)
(52.1086 0.0156019 0)
(52.1041 0.0237017 -2.07929e-20)
(52.0949 0.0357751 -2.48965e-20)
(52.0773 0.0547087 0)
(52.0478 0.0835232 0)
(52 0.130406 8.86975e-23)
(51.927 0.205078 -1.1154e-22)
(51.829 0.306494 -2.91699e-20)
(51.7119 0.432024 2.66724e-20)
(51.5777 0.579374 4.3983e-22)
(51.4326 0.744009 -1.2719e-21)
(51.283 0.923998 3.39297e-20)
(51.1337 1.11828 -4.88277e-20)
(50.9883 1.32598 3.40366e-20)
(50.8495 1.54593 5.20112e-20)
(50.7192 1.77585 0)
(50.5982 2.0122 -2.48937e-20)
(50.4868 2.2505 -8.7035e-21)
(50.3859 2.48576 3.32277e-20)
(50.2951 2.71306 -2.91858e-20)
(50.2146 2.92836 1.88899e-20)
(50.1445 3.12834 0)
(50.0845 3.31115 7.54506e-21)
(50.0341 3.47642 -3.61625e-23)
(49.9927 3.62478 -4.58741e-20)
(49.9585 3.75891 1.14884e-19)
(49.9306 3.87607 5.63058e-22)
(49.9152 3.95224 -6.87488e-20)
(49.8411 4.09977 9.22897e-21)
(52.0844 -0.00230097 9.49199e-20)
(52.0846 -0.000577596 -3.61236e-20)
(52.0853 -0.000638593 2.65239e-20)
(52.086 -0.000479252 3.46268e-20)
(52.0866 -0.000421786 -3.91346e-25)
(52.0874 -0.000398814 3.78841e-24)
(52.0882 -0.000398577 4.6703e-20)
(52.0892 -0.000409685 -3.3385e-20)
(52.0903 -0.000420813 5.38365e-25)
(52.0917 -0.000437916 3.57419e-20)
(52.0933 -0.000433886 0)
(52.0952 -0.000368798 -3.846e-20)
(52.0974 -0.000189992 -3.85122e-24)
(52.0999 0.000179609 4.62411e-24)
(52.1026 0.000841886 7.91261e-24)
(52.1053 0.00196334 4.14715e-20)
(52.1078 0.00370657 1.51626e-23)
(52.1096 0.00637269 -1.78569e-23)
(52.1102 0.0103442 0)
(52.1089 0.0161761 0)
(52.1045 0.0247197 0)
(52.0957 0.0375106 2.49959e-20)
(52.0792 0.0575674 5.48852e-24)
(52.0537 0.0879665 -1.67038e-20)
(52.0038 0.138462 0)
(51.9351 0.219937 0)
(51.8415 0.331064 0)
(51.7287 0.469088 2.6358e-20)
(51.5977 0.63134 -4.70606e-20)
(51.4545 0.812513 4.1291e-20)
(51.3062 1.01012 2.79459e-20)
(51.158 1.22261 5.52147e-20)
(51.0139 1.44866 3.21326e-20)
(50.8775 1.68665 -2.60148e-20)
(50.7507 1.93381 0)
(50.6352 2.18604 0)
(50.5311 2.4383 -1.62909e-20)
(50.4389 2.68537 -2.16875e-20)
(50.3578 2.92216 1.45733e-20)
(50.2875 3.14464 -1.8817e-20)
(50.2271 3.34971 4.87286e-20)
(50.1761 3.53575 -1.2086e-19)
(50.1337 3.70229 8.35128e-20)
(50.0987 3.84995 0)
(50.0703 3.98125 -1.08623e-19)
(50.0478 4.09002 1.23827e-19)
(50.0375 4.17339 8.64232e-21)
(49.9977 4.32093 -9.19129e-21)
(52.0843 -0.00235609 -1.90912e-19)
(52.0845 -0.000599541 3.6137e-20)
(52.0853 -0.000665019 -5.27885e-20)
(52.086 -0.00050471 -3.46294e-20)
(52.0866 -0.000448549 0)
(52.0873 -0.000428027 2.20134e-24)
(52.0881 -0.000431258 2.32112e-20)
(52.0891 -0.000446883 0)
(52.0903 -0.000463421 -4.82302e-20)
(52.0917 -0.000487148 0)
(52.0933 -0.000490272 8.9411e-25)
(52.0952 -0.000432158 3.84572e-20)
(52.0974 -0.000258961 0)
(52.0999 0.000109041 0)
(52.1026 0.000778372 7.88688e-24)
(52.1053 0.0019217 -4.15008e-20)
(52.1078 0.00371239 1.30986e-23)
(52.1095 0.00646812 -3.85652e-20)
(52.1102 0.0105963 0)
(52.1089 0.0166945 0)
(52.1045 0.0256817 0)
(52.0956 0.0392302 -5.10759e-23)
(52.0787 0.0606117 5.47016e-23)
(52.0507 0.0934219 1.66414e-20)
(52.0034 0.147686 0)
(51.9334 0.235149 0)
(51.8395 0.354724 2.79089e-20)
(51.7275 0.503519 -5.21156e-20)
(51.5988 0.678698 1.95069e-22)
(51.4596 0.874474 -3.9801e-20)
(51.3163 1.08801 -3.19522e-20)
(51.1741 1.31741 4.91098e-20)
(51.0368 1.56096 -3.62981e-20)
(50.9076 1.81649 0)
(50.7885 2.08071 0)
(50.6807 2.34888 6.30371e-20)
(50.5845 2.61532 -1.63258e-20)
(50.5006 2.8743 -2.22707e-20)
(50.4284 3.12037 2.91162e-20)
(50.3677 3.34918 1.87806e-20)
(50.3181 3.55758 -4.85617e-20)
(50.2788 3.74405 5.95481e-20)
(50.2487 3.90834 0)
(50.2263 4.0516 0)
(50.209 4.17746 -2.01838e-20)
(50.1972 4.27721 0)
(50.1895 4.37336 -1.72355e-20)
(50.1489 4.5204 0)
(52.0844 -0.00241495 9.59718e-20)
(52.0846 -0.000622928 0)
(52.0853 -0.000692795 -5.33375e-20)
(52.086 -0.000531131 -3.48257e-20)
(52.0866 -0.000476181 -4.75824e-20)
(52.0874 -0.000458097 -4.39488e-24)
(52.0882 -0.000464823 -9.2952e-20)
(52.0891 -0.000485035 -6.02399e-24)
(52.0903 -0.000507038 4.82282e-20)
(52.0917 -0.000537421 1.98845e-24)
(52.0933 -0.000547539 5.17446e-20)
(52.0952 -0.000495794 0)
(52.0975 -0.000326845 0)
(52.1 4.23766e-05 0)
(52.1027 0.000724047 -2.91553e-20)
(52.1054 0.00189872 4.12247e-20)
(52.1079 0.00375225 -2.8512e-20)
(52.1097 0.00662257 3.85862e-20)
(52.1104 0.0109458 -2.34769e-23)
(52.1092 0.0173681 0)
(52.1049 0.026882 4.15446e-23)
(52.0963 0.0413007 -4.57719e-23)
(52.08 0.0641168 0)
(52.054 0.0992481 -3.23686e-20)
(52.0059 0.157881 8.45571e-23)
(51.9379 0.252685 -1.0627e-22)
(51.8463 0.382555 -2.81726e-20)
(51.7363 0.544388 2.38772e-22)
(51.6094 0.734962 4.58935e-20)
(51.4717 0.947685 4.06512e-20)
(51.3304 1.1791 2.24227e-21)
(51.1911 1.42674 -5.18443e-20)
(51.0579 1.6883 0)
(50.9348 1.96098 0)
(50.8237 2.24083 -3.64044e-20)
(50.7259 2.52249 -4.98718e-20)
(50.6418 2.79971 3.35417e-20)
(50.5712 3.06648 2.21762e-20)
(50.5133 3.31727 -5.9334e-23)
(50.4672 3.54781 -3.73799e-20)
(50.4317 3.75538 4.82974e-20)
(50.4054 3.93879 1.32756e-21)
(50.3864 4.0983 -5.49976e-20)
(50.373 4.2352 -1.12549e-20)
(50.3638 4.35449 1.34084e-20)
(50.3593 4.44354 -1.24331e-19)
(50.358 4.54761 2.83639e-19)
(50.338 4.69029 -1.45999e-19)
(52.0843 -0.00247553 -9.39056e-24)
(52.0845 -0.000646374 -7.3739e-20)
(52.0853 -0.000720987 1.06939e-19)
(52.086 -0.00055806 3.483e-20)
(52.0866 -0.000504373 4.75847e-20)
(52.0873 -0.000488801 3.78565e-24)
(52.0881 -0.000499147 4.64211e-20)
(52.0891 -0.000524098 3.76017e-24)
(52.0903 -0.000551795 -1.64142e-24)
(52.0917 -0.000589126 1.98009e-24)
(52.0933 -0.000606677 -2.1785e-22)
(52.0952 -0.000561973 6.67521e-26)
(52.0974 -0.000398206 0)
(52.0999 -2.9151e-05 -4.05208e-20)
(52.1026 0.000662767 2.91485e-20)
(52.1053 0.00186562 -4.1214e-20)
(52.1079 0.00377756 2.84995e-20)
(52.1097 0.00675582 3.8271e-20)
(52.1104 0.011265 2.62092e-23)
(52.1092 0.0179985 3.22643e-24)
(52.1051 0.0280232 3.60365e-24)
(52.0965 0.0432956 2.40081e-20)
(52.0802 0.0675578 5.35963e-23)
(52.0536 0.105162 3.23713e-20)
(52.0071 0.167978 0)
(51.9398 0.269727 -1.4672e-22)
(51.85 0.409402 1.84401e-22)
(51.7427 0.583717 -2.57873e-20)
(51.6198 0.789139 6.26661e-22)
(51.4872 1.01836 -1.95844e-22)
(51.3518 1.26732 6.33995e-20)
(51.2192 1.53298 -5.21515e-20)
(51.0933 1.81239 4.2168e-21)
(50.9783 2.10202 -5.87446e-20)
(50.8758 2.39719 4.49712e-20)
(50.7874 2.69191 0)
(50.7131 2.97926 0)
(50.6529 3.25296 2.19383e-20)
(50.6059 3.5073 -2.8162e-20)
(50.5708 3.73812 1.34912e-21)
(50.5464 3.94308 -1.18156e-19)
(50.5306 4.12143 5.8785e-20)
(50.5214 4.27397 -1.84444e-20)
(50.5163 4.40286 1.12183e-20)
(50.5148 4.51403 1.0715e-19)
(50.5166 4.59122 -1.22188e-19)
(50.5188 4.70278 0)
(50.5058 4.83617 -1.46649e-19)
(52.0844 -0.00253941 -1.98201e-19)
(52.0846 -0.000671177 -7.47353e-20)
(52.0853 -0.000750501 -5.36026e-20)
(52.086 -0.000585975 7.00661e-20)
(52.0866 -0.000533508 -5.52675e-24)
(52.0873 -0.000520485 -6.54823e-20)
(52.0882 -0.000534535 0)
(52.0891 -0.000564369 6.56859e-20)
(52.0903 -0.000597938 4.76619e-20)
(52.0917 -0.000642408 3.49791e-20)
(52.0933 -0.000667485 -1.02823e-19)
(52.0952 -0.000629692 -5.31795e-25)
(52.0975 -0.000470507 0)
(52.1 -9.99951e-05 8.09122e-20)
(52.1027 0.000605521 5.79308e-20)
(52.1054 0.00184304 4.09592e-20)
(52.108 0.00382443 -1.29655e-23)
(52.1098 0.00692927 -3.8273e-20)
(52.1106 0.0116542 0)
(52.1095 0.018746 3.31281e-23)
(52.1055 0.0293545 -3.73665e-23)
(52.0971 0.0455918 -2.40569e-20)
(52.0813 0.0714617 -5.30352e-23)
(52.0556 0.111731 6.57649e-23)
(52.0093 0.17928 -1.78243e-20)
(51.9435 0.288827 -2.84806e-20)
(51.8557 0.439403 2.64834e-20)
(51.7507 0.627467 1.01554e-19)
(51.6305 0.849038 1.71986e-21)
(51.5009 1.0959 -3.85908e-20)
(51.3696 1.36323 -6.68713e-20)
(51.2422 1.64721 2.15278e-22)
(51.1232 1.94414 7.18206e-20)
(51.0169 2.24964 5.17264e-20)
(50.9251 2.55828 -1.89718e-20)
(50.849 2.86338 9.86138e-20)
(50.7885 3.1576 3.51461e-20)
(50.7431 3.43449 -4.29531e-20)
(50.711 3.68846 2.8642e-20)
(50.6906 3.91584 5.66524e-20)
(50.6797 4.11489 -1.63907e-19)
(50.6755 4.28565 1.16472e-19)
(50.6758 4.42937 -1.47223e-19)
(50.6784 4.5491 3.6614e-19)
(50.6826 4.65145 -2.09771e-19)
(50.691 4.71674 0)
(50.696 4.83428 -2.89657e-19)
(50.694 4.95868 2.96851e-19)
(52.0843 -0.00260571 1.98212e-19)
(52.0845 -0.000696289 2.2325e-19)
(52.0853 -0.000780654 -5.41602e-20)
(52.086 -0.000614567 -1.40319e-19)
(52.0866 -0.000563339 0)
(52.0873 -0.000552922 6.54815e-20)
(52.0881 -0.000570794 0)
(52.0891 -0.000605665 -6.5683e-20)
(52.0903 -0.000645317 -4.76559e-20)
(52.0917 -0.000697191 -3.49808e-20)
(52.0933 -0.000730131 1.02381e-19)
(52.0952 -0.000699655 3.76823e-20)
(52.0975 -0.000545466 -5.53411e-20)
(52.1 -0.000173872 -4.03863e-20)
(52.1027 0.000545079 -5.79239e-20)
(52.1054 0.00181741 -4.09589e-20)
(52.108 0.00386927 0)
(52.1099 0.00710282 0)
(52.1107 0.0120478 -2.59377e-23)
(52.1097 0.019505 -3.18858e-20)
(52.1057 0.0307091 3.95255e-20)
(52.0975 0.0479312 0)
(52.082 0.0754483 0)
(52.0565 0.11847 0)
(52.0115 0.190759 3.49797e-20)
(51.9471 0.308138 5.70938e-20)
(51.8621 0.469691 -2.68319e-20)
(51.7606 0.671607 -5.04157e-20)
(51.645 0.909449 0)
(51.5212 1.17405 0)
(51.3963 1.45975 -4.41441e-21)
(51.2765 1.76187 5.39578e-20)
(51.1662 2.07585 -7.16869e-20)
(51.0697 2.39642 1.36368e-20)
(50.9887 2.71728 -5.27287e-20)
(50.9245 3.0312 -4.90572e-20)
(50.8765 3.33043 -2.52845e-22)
(50.8438 3.60848 -4.35089e-20)
(50.8243 3.86002 0)
(50.8156 4.08198 1.4677e-19)
(50.8151 4.27339 -1.14433e-19)
(50.8198 4.43491 0)
(50.827 4.56868 0)
(50.8353 4.67807 -1.10211e-20)
(50.8439 4.77075 0)
(50.8562 4.82278 -1.5003e-20)
(50.8626 4.94412 1.68441e-20)
(50.8679 5.05632 -8.98418e-21)
(52.0844 -0.0026751 -2.02387e-19)
(52.0846 -0.000722645 4.93288e-22)
(52.0853 -0.000812078 -5.46875e-20)
(52.086 -0.000644133 1.40741e-19)
(52.0866 -0.000594138 -4.77181e-20)
(52.0873 -0.000586398 -7.56618e-24)
(52.0882 -0.000608214 0)
(52.0891 -0.000648301 4.43916e-24)
(52.0903 -0.000694279 -5.35725e-24)
(52.0917 -0.000753836 0)
(52.0933 -0.000794902 -2.17934e-22)
(52.0952 -0.000771872 -3.76808e-20)
(52.0975 -0.000622525 5.53405e-20)
(52.1 -0.000249041 -8.02165e-20)
(52.1027 0.000485361 0)
(52.1055 0.00179687 0)
(52.108 0.00392685 0)
(52.11 0.00730249 0)
(52.1109 0.0124891 2.58028e-23)
(52.1099 0.0203468 3.18905e-20)
(52.1061 0.032202 -7.87721e-20)
(52.0981 0.0504942 -4.84646e-23)
(52.083 0.0797917 5.18971e-23)
(52.0582 0.125759 -3.04227e-20)
(52.014 0.203155 -1.73814e-20)
(51.9515 0.328889 -5.5585e-20)
(51.8691 0.502076 5.2121e-22)
(51.7709 0.718577 -6.54582e-22)
(51.6595 0.973396 4.44702e-20)
(51.5406 1.25628 0)
(51.4219 1.56057 0)
(51.3097 1.88059 -5.42039e-20)
(51.2086 2.21081 8.25294e-21)
(51.123 2.54498 -1.35032e-20)
(51.0544 2.87598 1.22977e-19)
(51.0039 3.19608 -4.81209e-20)
(50.9704 3.49733 -3.25745e-20)
(50.9522 3.7734 4.39382e-20)
(50.9465 4.01953 -1.39361e-19)
(50.9504 4.23349 -7.41989e-20)
(50.9605 4.4153 2.04955e-20)
(50.9734 4.56615 2.58413e-19)
(50.9871 4.68914 -1.41125e-19)
(50.9994 4.7879 1.96275e-19)
(51.012 4.87096 -2.04959e-19)
(51.0264 4.9101 -2.09908e-19)
(51.0341 5.03578 2.63744e-19)
(51.0443 5.13679 0)
(52.0844 -0.00274739 4.06863e-19)
(52.0845 -0.000749516 -1.50956e-19)
(52.0853 -0.000844338 1.08818e-19)
(52.086 -0.000674544 2.0105e-22)
(52.0866 -0.000625788 4.77188e-20)
(52.0873 -0.000620783 1.62764e-23)
(52.0881 -0.000646673 -1.05188e-23)
(52.0891 -0.000692161 6.50466e-20)
(52.0903 -0.000744704 6.4552e-24)
(52.0917 -0.000812243 -7.78694e-24)
(52.0933 -0.000861771 -5.08594e-20)
(52.0952 -0.000846516 2.91661e-24)
(52.0975 -0.000702213 -5.49164e-20)
(52.1 -0.000326745 2.75706e-22)
(52.1027 0.000423915 5.73711e-20)
(52.1055 0.00177657 1.08159e-23)
(52.1081 0.00398881 -1.28338e-23)
(52.1101 0.00751393 0)
(52.111 0.0129549 2.56686e-23)
(52.1102 0.021233 2.98679e-24)
(52.1065 0.0337709 3.92113e-20)
(52.0987 0.0531826 0)
(52.084 0.0843392 -2.72826e-20)
(52.0597 0.133373 6.02215e-20)
(52.017 0.216022 1.24797e-22)
(51.9564 0.350335 2.74546e-20)
(51.8774 0.535443 -2.51259e-20)
(51.7834 0.766836 9.45714e-22)
(51.6774 1.0389 -3.52657e-21)
(51.5653 1.34019 2.08456e-21)
(51.4542 1.66295 4.32462e-21)
(51.3511 2.00037 8.91542e-20)
(51.2604 2.34584 -6.96397e-20)
(51.1865 2.69215 -1.33409e-20)
(51.1308 3.03135 -5.36418e-20)
(51.0939 3.35536 9.54277e-20)
(51.0742 3.65624 3.17709e-20)
(51.0693 3.928 0)
(51.0756 4.16668 3.51916e-22)
(51.0898 4.37105 3.55939e-20)
(51.1081 4.54198 0)
(51.1267 4.68155 -2.84766e-20)
(51.1449 4.7932 1.74221e-20)
(51.1597 4.88114 -2.1492e-20)
(51.1741 4.95426 0)
(51.1904 4.98034 -1.47675e-20)
(51.1975 5.10934 0)
(51.2118 5.19801 0)
(52.0844 -0.00282276 -2.04497e-19)
(52.0846 -0.000777596 1.52002e-19)
(52.0853 -0.000877876 -1.09924e-19)
(52.086 -0.000705948 7.1076e-20)
(52.0866 -0.000658445 0)
(52.0873 -0.00065627 0)
(52.0882 -0.000686379 9.15342e-20)
(52.0891 -0.000737473 -6.50441e-20)
(52.0903 -0.000796868 0)
(52.0917 -0.000872727 -4.71459e-24)
(52.0933 -0.000931075 5.68375e-24)
(52.0952 -0.000923892 -7.44263e-20)
(52.0975 -0.000784641 5.49141e-20)
(52.1 -0.000406655 7.99379e-20)
(52.1027 0.000361711 -1.87953e-22)
(52.1055 0.00175902 0)
(52.1081 0.0040599 0)
(52.1102 0.00774593 1.9637e-23)
(52.1112 0.0134597 -2.2886e-23)
(52.1104 0.0221885 -6.27878e-20)
(52.107 0.0354568 3.6398e-23)
(52.0995 0.0560609 0)
(52.0852 0.0891919 5.41146e-20)
(52.0617 0.141462 -2.98116e-20)
(52.0203 0.22963 0)
(51.962 0.372885 0)
(51.8865 0.570349 2.56148e-20)
(51.7971 0.817084 -4.74393e-20)
(51.6968 1.10675 -4.37108e-20)
(51.5915 1.4266 0)
(51.4886 1.76762 0)
(51.3951 2.12173 -6.14105e-22)
(51.3156 2.48118 8.81579e-20)
(51.2543 2.83781 -2.33515e-20)
(51.2124 3.18289 6.84448e-20)
(51.1898 3.50821 -6.58709e-22)
(51.1843 3.80607 -9.66377e-20)
(51.1924 4.07106 3.97819e-20)
(51.2103 4.30024 -8.31195e-20)
(51.2338 4.49365 3.12799e-19)
(51.2591 4.65271 -1.74671e-19)
(51.2828 4.78062 0)
(51.3034 4.8809 -1.73738e-20)
(51.3207 4.95847 0)
(51.3347 5.02202 4.27497e-19)
(51.3534 5.03641 -4.59424e-19)
(51.3587 5.16918 0)
(51.3749 5.24705 0)
(52.0844 -0.00290135 0)
(52.0846 -0.000806325 -7.62502e-20)
(52.0853 -0.000912395 -5.37915e-22)
(52.086 -0.000738331 -1.41765e-19)
(52.0866 -0.000692088 -9.5661e-20)
(52.0873 -0.000692808 6.52161e-20)
(52.0881 -0.00072729 -9.15325e-20)
(52.0891 -0.000784212 -8.77872e-24)
(52.0903 -0.00085074 9.34206e-20)
(52.0917 -0.000935279 -6.8432e-20)
(52.0933 -0.00100284 1.25668e-24)
(52.0952 -0.0010041 7.44116e-20)
(52.0975 -0.000870074 3.72752e-24)
(52.1 -0.000489249 7.93727e-20)
(52.1027 0.00029812 -5.71836e-20)
(52.1055 0.00174283 -8.06096e-20)
(52.1082 0.00413789 6.37415e-24)
(52.1103 0.0079946 0)
(52.1113 0.0139975 0)
(52.1107 0.0232023 6.28037e-20)
(52.1075 0.037241 -3.6162e-23)
(52.1002 0.0590992 -9.37369e-23)
(52.0866 0.0943015 -2.6842e-20)
(52.0638 0.14995 -2.88912e-20)
(52.0241 0.243827 1.44018e-22)
(51.9683 0.396278 -1.8073e-22)
(51.897 0.606387 -2.37658e-20)
(51.8128 0.868723 4.49639e-20)
(51.7192 1.17614 2.28096e-21)
(51.6219 1.51446 3.09788e-20)
(51.5283 1.87328 6.56989e-20)
(51.4455 2.24314 -5.89073e-20)
(51.3781 2.61511 1.5834e-20)
(51.3302 2.98009 2.58589e-20)
(51.3023 3.32876 -1.0062e-19)
(51.2938 3.65295 -9.45384e-20)
(51.3016 3.94546 5.74101e-20)
(51.3216 4.2017 1.60906e-19)
(51.3491 4.42002 0)
(51.3801 4.60141 -3.44045e-20)
(51.4101 4.74825 1.97622e-19)
(51.4372 4.86427 -1.88989e-19)
(51.4589 4.95335 -2.90168e-19)
(51.4771 5.02058 3.27459e-19)
(51.4903 5.07487 -2.47537e-20)
(51.51 5.0778 0)
(51.5129 5.21347 1.56486e-20)
(51.5315 5.28084 5.56744e-19)
(52.0844 -0.00298314 0)
(52.0846 -0.000836292 0)
(52.0853 -0.000948247 1.1045e-19)
(52.086 -0.000771762 7.13017e-20)
(52.0866 -0.000726805 9.56622e-20)
(52.0873 -0.000730533 -5.5808e-23)
(52.0882 -0.000769556 0)
(52.0891 -0.000832537 0)
(52.0903 -0.000906532 -9.33984e-20)
(52.0917 -0.00100014 3.01605e-22)
(52.0933 -0.00107735 -9.99359e-20)
(52.0952 -0.00108745 -8.2933e-24)
(52.0975 -0.000958847 -5.42765e-20)
(52.1 -0.000574756 -2.76268e-22)
(52.1028 0.000233171 0)
(52.1056 0.00172883 2.60709e-22)
(52.1083 0.00422438 5.71989e-24)
(52.1104 0.00826309 -8.60694e-24)
(52.1115 0.014573 -2.52779e-23)
(52.111 0.0242827 6.09023e-23)
(52.108 0.0391361 -3.59304e-23)
(52.1011 0.0623149 4.52657e-20)
(52.088 0.0996943 -2.62894e-20)
(52.0663 0.158874 4.09872e-22)
(52.0283 0.258675 -1.52152e-20)
(51.9754 0.420591 -2.44394e-20)
(51.9086 0.643624 -2.13453e-22)
(51.8304 0.921784 -2.10256e-20)
(51.7441 1.24701 0)
(51.6554 1.60359 -7.18033e-20)
(51.5719 1.97958 -5.06893e-20)
(51.5006 2.36403 -1.03265e-20)
(51.446 2.74682 6.60906e-20)
(51.4119 3.11801 -2.53639e-20)
(51.3982 3.46788 -3.4091e-20)
(51.4036 3.78855 -9.18492e-20)
(51.424 4.07354 -6.48244e-20)
(51.4546 4.31937 3.75734e-20)
(51.4905 4.52567 1.06011e-19)
(51.5272 4.69449 -2.67401e-19)
(51.5611 4.82894 1.46396e-19)
(51.5895 4.93318 1.89385e-19)
(51.6118 5.01145 -2.13365e-19)
(51.6292 5.06862 -3.2579e-19)
(51.6417 5.11435 4.06193e-19)
(51.6601 5.10608 1.37562e-20)
(51.6618 5.24519 -1.56128e-20)
(51.6814 5.30255 -5.4552e-19)
(52.0844 -0.00306841 -2.12929e-19)
(52.0846 -0.000866997 4.52454e-23)
(52.0853 -0.000985191 -2.52774e-23)
(52.086 -0.000806281 -2.1427e-19)
(52.0866 -0.00076262 9.58031e-20)
(52.0873 -0.000769437 -6.51373e-20)
(52.0881 -0.000813179 1.72623e-24)
(52.0891 -0.000882478 -5.97904e-24)
(52.0903 -0.000964271 -1.05138e-23)
(52.0916 -0.00106738 3.01826e-22)
(52.0933 -0.00115471 1.99431e-19)
(52.0952 -0.00117411 1.01071e-23)
(52.0975 -0.00105114 1.62383e-19)
(52.1 -0.000663524 -2.69844e-22)
(52.1028 0.00016645 1.22305e-24)
(52.1056 0.00171661 1.60424e-19)
(52.1083 0.00431933 -5.52485e-20)
(52.1105 0.00855144 0)
(52.1117 0.0151866 -1.25766e-23)
(52.1114 0.0254286 1.44527e-23)
(52.1086 0.0411381 -3.78597e-20)
(52.1021 0.0656988 -4.29013e-22)
(52.0897 0.105351 2.62525e-20)
(52.069 0.168201 2.83896e-20)
(52.0331 0.274109 3.02386e-20)
(51.9834 0.445699 3.57655e-20)
(51.9219 0.681841 4.58573e-20)
(51.8501 0.975909 4.37506e-20)
(51.772 1.31884 3.06854e-21)
(51.693 1.69325 3.16459e-20)
(51.6204 2.08557 -8.06694e-21)
(51.5615 2.48324 2.22536e-20)
(51.5204 2.875 -6.35463e-20)
(51.5005 3.25021 -2.20494e-20)
(51.5009 3.59896 6.56446e-20)
(51.5194 3.91394 9.31416e-22)
(51.5512 4.18962 0)
(51.5909 4.4238 -3.85636e-20)
(51.6333 4.61741 0)
(51.6742 4.77347 -1.32844e-19)
(51.7095 4.89566 -4.506e-21)
(51.7389 4.98846 3.92568e-19)
(51.7599 5.05641 -2.57793e-19)
(51.7762 5.10402 -3.1857e-19)
(51.7867 5.14153 -2.8638e-20)
(51.8036 5.12248 4.18492e-19)
(51.8024 5.2639 0)
(51.8229 5.31111 5.1693e-19)
(52.0844 -0.00315705 4.27888e-19)
(52.0846 -0.000899002 0)
(52.0853 -0.00102355 -1.12096e-19)
(52.086 -0.000841925 2.14687e-19)
(52.0866 -0.000799597 -9.58062e-20)
(52.0873 -0.000809632 6.50263e-20)
(52.0882 -0.000858281 1.04257e-23)
(52.0891 -0.000934162 -6.39666e-20)
(52.0903 -0.00102413 2.16018e-24)
(52.0917 -0.0011372 6.77855e-20)
(52.0933 -0.00123518 -9.94761e-20)
(52.0952 -0.00126437 0)
(52.0975 -0.00114734 -1.08096e-19)
(52.1 -0.000755898 -7.88186e-20)
(52.1028 9.75623e-05 1.12845e-19)
(52.1056 0.00170586 -1.59887e-19)
(52.1084 0.0044231 1.89203e-22)
(52.1106 0.00886142 -1.20738e-24)
(52.112 0.0158411 7.66543e-24)
(52.1118 0.0266451 6.14286e-20)
(52.1093 0.0432535 7.54636e-20)
(52.1032 0.0692543 -4.47902e-20)
(52.0916 0.111268 2.55179e-20)
(52.0721 0.177917 -2.74665e-20)
(52.0384 0.290102 -1.47961e-20)
(51.9925 0.471546 -4.27518e-22)
(51.9365 0.720911 -2.22338e-20)
(51.872 1.03087 -1.98582e-20)
(51.8029 1.39123 -2.10425e-21)
(51.7344 1.78287 -4.98909e-21)
(51.6737 2.19046 6.25105e-21)
(51.6278 2.5998 0)
(51.6007 2.99854 -8.01891e-20)
(51.595 3.37552 6.65487e-20)
(51.6091 3.72095 0)
(51.6398 4.02829 4.36396e-20)
(51.6815 4.2932 -5.95341e-20)
(51.7286 4.51481 7.50702e-20)
(51.7759 4.69554 0)
(51.8192 4.83863 -1.29584e-19)
(51.8556 4.949 2.0016e-19)
(51.8833 5.03064 5.8969e-22)
(51.9045 5.08905 -3.20135e-20)
(51.9161 5.12735 0)
(51.9282 5.15826 -3.69664e-19)
(51.9387 5.1288 4.2184e-19)
(51.9383 5.27459 -4.74771e-19)
(51.9593 5.31396 5.00007e-19)
(52.0844 -0.00324941 -2.15008e-19)
(52.0846 -0.000931819 0)
(52.0853 -0.0010631 2.24749e-19)
(52.086 -0.000878755 -2.1551e-19)
(52.0866 -0.000837776 0)