/*--------------------------------*- C++ -*----------------------------------*\
  =========                 |
  \\      /  F ield         | OpenFOAM: The Open Source CFD Toolbox
   \\    /   O peration     | Website:  https://openfoam.org
    \\  /    A nd           | Version:  10
     \\/     M anipulation  |
\*---------------------------------------------------------------------------*/
FoamFile
{
    format      ascii;
    class       volScalarField;
    location    "0";
    object      p;
}
// * * * * * * * * * * * * * * * * * * * * * * * * * * * * * * * * * * * * * //

dimensions      [0 2 -2 0 0 0 0];

internalField   nonuniform List<scalar> 
7600
(
-0.118208
-0.0814949
-0.0427285
-0.0152758
0.00145049
0.0107329
0.0153575
0.0172133
0.0175837
0.0174387
-0.195107
-0.156072
-0.112355
-0.0779441
-0.0537506
-0.0374269
-0.0265506
-0.0192874
-0.0143377
-0.0106207
-0.269691
-0.228568
-0.180743
-0.140437
-0.109682
-0.0869484
-0.070203
-0.0577395
-0.0482987
-0.0410222
-0.339547
-0.296905
-0.245767
-0.200542
-0.164145
-0.135746
-0.113699
-0.096466
-0.0828467
-0.0720531
-0.403067
-0.359265
-0.305482
-0.256221
-0.215084
-0.181827
-0.155161
-0.133726
-0.116388
-0.10234
-0.458779
-0.414047
-0.358156
-0.305643
-0.260632
-0.223348
-0.192804
-0.167806
-0.147282
-0.130392
-0.505409
-0.459867
-0.402284
-0.347216
-0.299151
-0.258665
-0.225011
-0.197128
-0.173998
-0.154762
-0.541962
-0.495558
-0.4366
-0.379608
-0.329271
-0.286397
-0.250409
-0.220343
-0.195225
-0.174191
-0.567812
-0.520141
-0.460087
-0.401778
-0.349927
-0.305467
-0.267924
-0.236397
-0.209939
-0.187688
-0.581568
-0.532786
-0.472029
-0.413018
-0.3604
-0.315146
-0.276826
-0.244567
-0.217437
-0.194573
0.386421
0.3378
0.279245
0.229413
0.18971
0.158523
0.134007
0.114628
0.0991941
0.087424
0.383589
0.342305
0.285049
0.234558
0.194024
0.16211
0.136999
0.117141
0.101336
0.0893082
0.366687
0.340239
0.290072
0.240936
0.200108
0.167504
0.141662
0.121137
0.104771
0.0923413
0.33488
0.324887
0.287146
0.243182
0.204075
0.171815
0.145772
0.124839
0.108019
0.0952375
0.29089
0.294838
0.271994
0.236823
0.202111
0.17194
0.146814
0.126181
0.109325
0.0964442
0.236903
0.251506
0.243461
0.219358
0.191476
0.165335
0.142567
0.123267
0.10706
0.0944912
0.174786
0.197235
0.202452
0.19022
0.170851
0.150438
0.131484
0.114706
0.100055
0.0883192
0.106395
0.134506
0.150923
0.150261
0.140228
0.126743
0.112826
0.0997124
0.087675
0.0774426
0.0337244
0.0657069
0.0912463
0.101202
0.1006
0.0946814
0.0866305
0.0780665
0.0696357
0.0618221
-0.0414882
-0.00693179
0.0258967
0.0452323
0.0536484
0.0554353
0.0536631
0.0501456
0.0458566
0.0413183
0.0648883
0.0424721
0.0282377
0.0195976
0.0139784
0.0101788
0.00753733
0.00565787
0.00429583
0.00329545
0.00255444
0.00200342
0.00159369
0.00129011
0.0010667
0.000903974
0.000787113
0.000704811
0.000648322
0.000610962
0.000587524
0.000574062
0.000567503
0.000565564
0.000566466
0.000568938
0.000571983
0.000574933
0.000577259
0.00057865
0.000578849
0.000577754
0.00057527
0.000571411
0.000566176
0.000559646
0.000551873
0.000542979
0.000533047
0.000522223
0.000510611
0.000498368
0.000485607
0.000472479
0.000459085
0.00044555
0.000431939
0.000418332
0.000404744
0.000391208
0.000377704
0.000364239
0.000350782
0.000337344
0.000323906
0.000310495
0.000297108
0.000283778
0.000270505
0.000257317
0.000244206
0.000231185
0.000218237
0.00020537
0.000192564
0.000179828
0.000167144
0.000154525
0.000141955
0.000129447
0.000116983
0.000104573
9.21969e-05
7.98606e-05
6.75395e-05
5.52416e-05
4.29486e-05
3.06841e-05
1.84413e-05
6.16967e-06
0.0660855
0.0431153
0.0286342
0.0198271
0.0141216
0.0102774
0.00760969
0.00571192
0.00433623
0.00332564
0.00257707
0.00202047
0.00160663
0.00129999
0.0010743
0.000909866
0.000791719
0.000708433
0.000651208
0.000613278
0.000589414
0.000575619
0.000568813
0.000566675
0.000567434
0.000569784
0.000572744
0.000575617
0.000577891
0.000579231
0.000579398
0.000578267
0.000575761
0.000571875
0.000566624
0.000560072
0.000552288
0.000543374
0.000533433
0.000522591
0.00051097
0.00049871
0.000485939
0.000472794
0.00045939
0.000445838
0.000432217
0.000418594
0.000404997
0.000391447
0.000377935
0.000364457
0.000350994
0.000337544
0.0003241
0.000310677
0.000297282
0.00028394
0.000270659
0.000257457
0.000244336
0.000231301
0.000218343
0.000205462
0.000192646
0.000179896
0.000167202
0.000154569
0.00014199
0.00012947
0.000116999
0.00010458
9.2199e-05
7.9855e-05
6.75322e-05
5.52289e-05
4.29368e-05
3.06696e-05
1.84305e-05
6.16365e-06
0.0682108
0.0443177
0.0293968
0.0202775
0.0144062
0.0104746
0.00775405
0.00581926
0.00441613
0.00338517
0.00262158
0.00205395
0.00163196
0.00131928
0.00108907
0.000921246
0.000800534
0.000715316
0.000656616
0.000617573
0.000592855
0.000578416
0.000571112
0.0005686
0.000569064
0.000571194
0.000573977
0.000576718
0.000578882
0.00058014
0.000580235
0.000579052
0.000576496
0.000572575
0.000567287
0.00056071
0.000552897
0.000543964
0.000533998
0.00052314
0.000511498
0.000499223
0.000486432
0.000473273
0.00045985
0.000446284
0.000432644
0.000419005
0.000405389
0.000391825
0.000378295
0.000364803
0.000351323
0.00033786
0.0003244
0.000310963
0.000297552
0.000284196
0.000270897
0.000257681
0.000244541
0.00023149
0.000218512
0.000205614
0.000192778
0.000180011
0.000167298
0.00015465
0.000142054
0.00012952
0.000117035
0.000104605
9.22129e-05
7.98619e-05
6.7531e-05
5.52238e-05
4.29265e-05
3.06579e-05
1.8415e-05
6.15467e-06
0.0707517
0.0459123
0.0304592
0.0209291
0.0148298
0.0107715
0.00797093
0.00597956
0.00453489
0.00347338
0.0026874
0.00210334
0.00166924
0.00134759
0.00111067
0.000937811
0.000813299
0.000725216
0.000664338
0.000623651
0.000597678
0.000582293
0.000574262
0.000571205
0.000571245
0.000573059
0.00057559
0.000578146
0.000580157
0.000581304
0.000581303
0.00058005
0.000577431
0.000573465
0.000568133
0.000561525
0.000553679
0.000544724
0.000534731
0.000523855
0.00051219
0.000499898
0.000487085
0.000473908
0.000460461
0.000446876
0.00043321
0.000419552
0.00040591
0.000392325
0.000378771
0.000365261
0.000351759
0.00033828
0.0003248
0.000311348
0.000297917
0.000284543
0.000271223
0.000257988
0.000244825
0.000231754
0.000218753
0.000205835
0.000192975
0.000180188
0.000167452
0.000154785
0.000142167
0.000129615
0.00011711
0.000104665
9.2256e-05
7.98932e-05
6.75488e-05
5.52335e-05
4.29266e-05
3.06536e-05
1.84026e-05
6.14648e-06
0.0729827
0.0476528
0.0317248
0.0217539
0.0153873
0.0111677
0.00825954
0.0061916
0.00469124
0.00358915
0.00277358
0.00216789
0.00171784
0.00138437
0.00113863
0.000959161
0.000829664
0.000737823
0.000674097
0.000631262
0.000603655
0.000587042
0.000578073
0.000574313
0.000573814
0.000575227
0.000577445
0.000579769
0.000581596
0.000582607
0.000582494
0.000581161
0.000578472
0.000574457
0.000569079
0.000562439
0.000554561
0.000545583
0.000535567
0.000524674
0.000512986
0.000500679
0.000487843
0.000474649
0.000461176
0.000447569
0.000433875
0.000420192
0.000406521
0.000392913
0.000379332
0.000365801
0.000352276
0.000338779
0.000325278
0.000311809
0.000298357
0.000284965
0.000271621
0.000258365
0.000245177
0.000232083
0.000219057
0.000206116
0.000193231
0.000180422
0.00016766
0.00015497
0.000142327
0.000129754
0.000117225
0.00010476
9.23294e-05
7.99498e-05
6.75875e-05
5.52596e-05
4.29393e-05
3.06579e-05
1.8395e-05
6.13956e-06
0.0740428
0.0492236
0.033069
0.0227149
0.0160692
0.0116589
0.00861653
0.00645258
0.00488299
0.00373079
0.00287882
0.00224653
0.0017769
0.00142893
0.00117235
0.00098477
0.000849166
0.000752728
0.000685527
0.000640074
0.000610488
0.000592388
0.000582295
0.000577695
0.00057656
0.0005775
0.000579358
0.000581417
0.000583039
0.000583901
0.000583671
0.000582254
0.000579497
0.000575434
0.000570016
0.000563349
0.000555446
0.000546452
0.000536419
0.000525514
0.000513812
0.000501493
0.00048864
0.00047543
0.000461935
0.000448307
0.000434585
0.000420877
0.000407177
0.000393544
0.000379937
0.000366385
0.000352839
0.000339325
0.000325806
0.000312321
0.000298849
0.000285437
0.000272071
0.000258793
0.000245581
0.000232464
0.000219412
0.000206448
0.000193538
0.000180705
0.000167918
0.000155204
0.000142534
0.000129935
0.000117379
0.00010489
9.24342e-05
8.00332e-05
6.76492e-05
5.53043e-05
4.29672e-05
3.0673e-05
1.83942e-05
6.13481e-06
0.0730621
0.0502645
0.0343449
0.0237639
0.0168576
0.012235
0.00903503
0.00675784
0.00510692
0.00389603
0.00300142
0.00233796
0.00184537
0.00148036
0.00121108
0.00101399
0.000871237
0.000769423
0.000698175
0.000649681
0.000617807
0.000597995
0.000586619
0.000581065
0.000579219
0.000579634
0.000581103
0.000582877
0.00058429
0.000585001
0.000584661
0.000583166
0.000580354
0.000576254
0.00057081
0.000564128
0.000556215
0.000547218
0.000537182
0.000526277
0.000514573
0.000502252
0.000489392
0.000476172
0.000462663
0.000449017
0.000435274
0.000421542
0.000407818
0.000394163
0.000380535
0.000366966
0.000353405
0.000339878
0.000326346
0.000312848
0.000299362
0.000285935
0.00027255
0.000259252
0.000246018
0.00023288
0.000219806
0.00020682
0.000193887
0.000181032
0.00016822
0.00015548
0.000142783
0.000130157
0.000117572
0.000105055
9.25715e-05
8.01449e-05
6.77362e-05
5.53702e-05
4.30134e-05
3.07017e-05
1.8403e-05
6.13349e-06
0.069316
0.050415
0.0353972
0.0248376
0.0177214
0.0128778
0.00950452
0.00710102
0.005359
0.0040821
0.00313939
0.00244063
0.001922
0.00153764
0.00125394
0.00104605
0.000895203
0.000787314
0.000711508
0.000659599
0.000625174
0.000603462
0.000590679
0.000584086
0.000581478
0.000581339
0.000582409
0.000583899
0.000585112
0.000585686
0.000585256
0.000583705
0.00058086
0.000576746
0.000571301
0.000564627
0.000556728
0.000547748
0.00053773
0.000526844
0.000515157
0.000502849
0.000489998
0.000476782
0.00046327
0.000449617
0.000435862
0.000422116
0.000408377
0.000394707
0.000381068
0.00036749
0.000353923
0.000340392
0.000326857
0.000313355
0.000299862
0.000286426
0.00027303
0.000259718
0.000246467
0.000233313
0.000220221
0.000207218
0.000194267
0.000181391
0.000168558
0.000155795
0.000143072
0.000130418
0.000117803
0.000105256
9.27425e-05
8.02869e-05
6.78512e-05
5.54604e-05
4.3081e-05
3.07471e-05
1.84245e-05
6.13715e-06
0.0623056
0.0493688
0.0360919
0.0258611
0.0186157
0.0135634
0.0100122
0.00747485
0.00563466
0.00428589
0.00329041
0.00255275
0.00200531
0.00159955
0.00129987
0.00108004
0.000920254
0.000805675
0.000724874
0.000669239
0.000632053
0.000608298
0.00059402
0.000586337
0.000582949
0.000582253
0.000582939
0.000584166
0.000585211
0.000585681
0.000585198
0.000583626
0.000580788
0.000576696
0.000571287
0.000564655
0.000556805
0.000547873
0.000537906
0.000527067
0.000515424
0.000503153
0.000490335
0.000477142
0.000463648
0.000450003
0.000436254
0.000422507
0.000408769
0.000395098
0.000381463
0.000367891
0.000354333
0.000340812
0.000327288
0.000313795
0.000300309
0.000286874
0.000273477
0.00026016
0.000246904
0.00023374
0.00022064
0.000207626
0.000194664
0.000181774
0.000168925
0.000156141
0.000143395
0.000130714
0.00011807
0.000105492
9.29479e-05
8.04607e-05
6.79965e-05
5.55777e-05
4.31735e-05
3.08127e-05
1.84622e-05
6.14754e-06
0.0518763
0.0470342
0.0364335
0.0268181
0.0195189
0.0142812
0.0105535
0.00787686
0.00593222
0.00450604
0.00345329
0.00267324
0.00209434
0.00166515
0.00134801
0.00111514
0.000945626
0.000823787
0.000737593
0.000677959
0.000637835
0.000611929
0.000596102
0.00058731
0.000583151
0.000581924
0.000582268
0.000583279
0.000584212
0.000584632
0.000584156
0.00058262
0.000579849
0.000575832
0.000570516
0.000563975
0.000556225
0.000547387
0.000537517
0.000526764
0.000515207
0.000503007
0.000490256
0.000477114
0.000463667
0.000450055
0.000436336
0.000422612
0.000408898
0.000395249
0.00038164
0.000368094
0.000354569
0.000341078
0.000327586
0.000314119
0.000300658
0.00028724
0.000273858
0.000260549
0.0002473
0.000234139
0.000221042
0.000208027
0.000195065
0.000182169
0.000169312
0.000156513
0.000143748
0.000131042
0.000118372
0.000105762
9.3188e-05
8.06677e-05
6.81741e-05
5.57249e-05
4.3294e-05
3.09023e-05
1.85196e-05
6.16647e-06
0.0265604
0.0360786
0.0326022
0.025726
0.0193443
0.0143952
0.0107359
0.00805355
0.00608209
0.00462636
0.0035473
0.00274561
0.0021496
0.00170716
0.00137987
0.00113925
0.000963847
0.000837505
0.000747871
0.00068557
0.000643383
0.000615843
0.000598733
0.0005889
0.000583912
0.000581995
0.000581784
0.000582324
0.000582879
0.000582977
0.000582248
0.000580497
0.000577569
0.000573425
0.00056803
0.000561433
0.000553668
0.000544832
0.000534996
0.000524286
0.000512796
0.000500664
0.000487995
0.000474931
0.000461569
0.000448035
0.000434403
0.00042076
0.00040714
0.000393584
0.000380084
0.000366648
0.000353246
0.000339875
0.000326509
0.000313157
0.000299811
0.000286496
0.000273214
0.000259993
0.000246834
0.000233753
0.00022074
0.000207799
0.000194912
0.000182077
0.000169278
0.000156519
0.000143789
0.000131101
0.000118445
0.000105836
9.32639e-05
8.07386e-05
6.82463e-05
5.57948e-05
4.33679e-05
3.09699e-05
1.8577e-05
6.19134e-06
-0.000626301
0.0184771
0.0229396
0.0208389
0.016979
0.0132591
0.0101907
0.00779566
0.0059662
0.00458143
0.00353783
0.00275358
0.00216584
0.00172694
0.00140078
0.00116
0.000983794
0.000856276
0.000765281
0.000701508
0.000657808
0.000628737
0.000610116
0.000598799
0.000592383
0.000589096
0.000587595
0.00058692
0.000586356
0.000585419
0.000583757
0.000581162
0.000577492
0.000572693
0.000566739
0.000559665
0.000551509
0.000542354
0.000532274
0.000521378
0.000509763
0.000497549
0.000484845
0.000471773
0.000458435
0.000444942
0.000431371
0.000417799
0.000404266
0.000390806
0.000377417
0.000364101
0.000350833
0.000337602
0.000324388
0.00031119
0.000298002
0.000284841
0.000271713
0.000258638
0.000245621
0.000232674
0.000219792
0.000206973
0.000194201
0.000181473
0.000168772
0.000156099
0.000143446
0.000130821
0.000118221
0.000105657
9.31255e-05
8.06331e-05
6.81732e-05
5.57483e-05
4.33464e-05
3.09634e-05
1.85821e-05
6.19585e-06
-0.0160002
0.00445362
0.0131956
0.0149195
0.0136142
0.0113942
0.00916298
0.00722987
0.00565673
0.00441579
0.00345387
0.0027165
0.00215585
0.00173262
0.00141538
0.00117948
0.00100565
0.000878934
0.000787747
0.000723134
0.000678185
0.000647604
0.00062733
0.000614285
0.000606132
0.000601131
0.000597977
0.000595726
0.000593683
0.000591371
0.00058845
0.000584708
0.00058001
0.000574296
0.000567541
0.00055977
0.000551022
0.000541367
0.000530879
0.000519652
0.00050778
0.000495373
0.000482532
0.000469368
0.000455978
0.000442462
0.000428894
0.000415342
0.000401845
0.000388432
0.000375106
0.000361862
0.000348682
0.000335551
0.00032245
0.000309373
0.000296316
0.000283286
0.000270293
0.000257348
0.000244459
0.000231632
0.000218864
0.000206151
0.000193481
0.000180845
0.000168233
0.00015564
0.000143061
0.000130502
0.000117961
0.000105448
9.29616e-05
8.05074e-05
6.80816e-05
5.56842e-05
4.33053e-05
3.09382e-05
1.85705e-05
6.19315e-06
-0.024316
-0.00556065
0.00479421
0.0089944
0.00978656
0.00902535
0.00772432
0.00636288
0.00513695
0.00410701
0.00327413
0.0026163
0.00210511
0.00171277
0.00141483
0.00119082
0.0010241
0.000901361
0.000812052
0.000747913
0.000702499
0.000670829
0.000649066
0.000634288
0.000624274
0.000617363
0.000612312
0.000608218
0.00060442
0.000600456
0.000596005
0.000590859
0.000584889
0.000578032
0.000570265
0.000561605
0.000552087
0.000541772
0.000530728
0.00051904
0.000506795
0.000494089
0.000481019
0.000467682
0.000454169
0.000440566
0.000426944
0.00041336
0.000399852
0.000386443
0.000373137
0.000359926
0.000346795
0.000333728
0.000320706
0.000307721
0.000294767
0.000281847
0.000268967
0.000256136
0.000243357
0.000230635
0.000217967
0.000205348
0.000192766
0.000180213
0.00016768
0.000155161
0.000142653
0.000130157
0.000117677
0.000105216
9.27772e-05
8.03635e-05
6.7973e-05
5.56041e-05
4.3249e-05
3.09002e-05
1.8549e-05
6.18632e-06
-0.0283676
-0.0122513
-0.00183921
0.0036701
0.00595141
0.00642008
0.00600928
0.00525274
0.00442577
0.00365576
0.00299175
0.00244388
0.00200454
0.0016593
0.00139224
0.00118836
0.00103455
0.000919817
0.00083517
0.000773387
0.000728745
0.000696762
0.000673959
0.000657667
0.000645849
0.000636977
0.000629907
0.000623802
0.000618052
0.00061223
0.000606038
0.000599282
0.00059184
0.000583652
0.000574695
0.000564981
0.000554541
0.000543427
0.000531701
0.000519438
0.000506715
0.00049362
0.000480237
0.000466654
0.000452951
0.000439203
0.000425473
0.000411811
0.000398248
0.000384804
0.000371479
0.000358268
0.000345154
0.00033212
0.000319149
0.000306229
0.000293354
0.000280523
0.000267737
0.000255001
0.000242317
0.000229686
0.000217105
0.000204568
0.000192064
0.000179586
0.000167124
0.000154673
0.000142231
0.000129798
0.000117375
0.000104967
9.2576e-05
8.02039e-05
6.78494e-05
5.55104e-05
4.31805e-05
3.08528e-05
1.85207e-05
6.17687e-06
-0.0298934
-0.0164795
-0.00679369
-0.00080106
0.0024061
0.00380652
0.00416311
0.00398174
0.00356523
0.00308074
0.00261284
0.00219895
0.001851
0.00156803
0.00134332
0.00116809
0.00103343
0.00093124
0.000854493
0.00079735
0.000755058
0.000723825
0.00070067
0.000683281
0.000669884
0.000659138
0.000650042
0.000641855
0.000634044
0.000626229
0.000618147
0.000609626
0.00060056
0.000590893
0.000580604
0.000569703
0.000558217
0.000546191
0.000533678
0.000520743
0.000507456
0.000493891
0.000480124
0.000466229
0.000452277
0.000438332
0.000424447
0.000410663
0.000397007
0.000383492
0.000370118
0.000356876
0.000343751
0.000330725
0.000317779
0.000304902
0.000292084
0.00027932
0.000266609
0.000253952
0.000241347
0.000228794
0.000216288
0.000203822
0.000191387
0.000178975
0.000166577
0.000154189
0.000141808
0.000129433
0.000117065
0.000104709
9.23643e-05
8.00333e-05
6.77148e-05
5.54064e-05
4.3103e-05
3.07984e-05
1.84879e-05
6.16573e-06
-0.0299763
-0.0189862
-0.0103476
-0.00438815
-0.000697535
0.00134445
0.00231072
0.00263442
0.00260753
0.00241181
0.00215311
0.00188876
0.00164687
0.00143874
0.00126656
0.00112794
0.00101855
0.00093348
0.00086803
0.000818004
0.000779841
0.00075061
0.000727962
0.000710044
0.000695424
0.000683009
0.000671981
0.000661733
0.000651827
0.000641951
0.000631891
0.000621505
0.000610709
0.000599456
0.000587731
0.000575543
0.000562916
0.000549887
0.000536504
0.000522822
0.000508899
0.0004948
0.000480589
0.000466328
0.000452078
0.000437891
0.000423809
0.000409867
0.000396084
0.000382469
0.000369018
0.000355722
0.000342562
0.000329522
0.000316582
0.000303727
0.000290947
0.000278232
0.000265579
0.000252985
0.000240446
0.000227958
0.000215516
0.000203112
0.000190738
0.000178385
0.000166045
0.000153714
0.000141389
0.000129068
0.000116753
0.000104445
9.21457e-05
7.98549e-05
6.7572e-05
5.52946e-05
4.30187e-05
3.07388e-05
1.84518e-05
6.15343e-06
-0.0292818
-0.0203355
-0.0128107
-0.00717274
-0.00331188
-0.000873042
0.000544144
0.00128402
0.00160467
0.00168326
0.00163382
0.00152574
0.0013989
0.00127462
0.00116301
0.00106776
0.00098905
0.000925366
0.000874482
0.000834039
0.000801833
0.000775939
0.000754752
0.000736974
0.000721585
0.000707797
0.000695017
0.000682804
0.000670841
0.000658901
0.000646833
0.000634535
0.000621949
0.000609045
0.000595817
0.000582275
0.000568441
0.000554348
0.000540035
0.000525548
0.000510937
0.000496254
0.000481552
0.000466883
0.000452294
0.000437828
0.000423517
0.000409387
0.00039545
0.00038171
0.000368161
0.000354789
0.000341577
0.000328504
0.000315551
0.000302702
0.000289942
0.000277261
0.000264651
0.000252105
0.000239619
0.000227185
0.000214797
0.000202447
0.000190125
0.000177824
0.000165536
0.000153257
0.000140983
0.000128712
0.000116445
0.000104183
9.19258e-05
7.96735e-05
6.74252e-05
5.51786e-05
4.29304e-05
3.06761e-05
1.84137e-05
6.14044e-06
-0.0282116
-0.0209323
-0.0144596
-0.00928007
-0.00545249
-0.00280497
-0.00107762
-1.31033e-05
0.000602295
0.000928785
0.00107838
0.00112536
0.00111687
0.00108153
0.00103593
0.000989081
0.000945426
0.000906729
0.000873294
0.000844689
0.000820169
0.000798915
0.000780156
0.000763225
0.000747573
0.000732766
0.000718475
0.000704455
0.000690531
0.000676581
0.000662526
0.000648315
0.000633924
0.000619346
0.000604583
0.000589652
0.000574575
0.00055938
0.000544101
0.000528774
0.00051344
0.000498139
0.000482915
0.000467806
0.000452849
0.000438077
0.000423512
0.00040917
0.000395059
0.000381175
0.00036751
0.000354048
0.000340767
0.000327648
0.000314669
0.000301811
0.000289058
0.000276396
0.000263816
0.000251307
0.000238863
0.000226473
0.00021413
0.000201825
0.000189549
0.000177294
0.000165053
0.00015282
0.000140592
0.000128367
0.000116145
0.000103925
9.17079e-05
7.94921e-05
6.7277e-05
5.50605e-05
4.284e-05
3.06117e-05
1.83744e-05
6.12706e-06
-0.027003
-0.0210576
-0.0155197
-0.0108415
-0.00716775
-0.00444608
-0.00252328
-0.00121826
-0.000363358
0.000178194
0.000509493
0.000704046
0.000812138
0.000867039
0.00089014
0.000894832
0.000889271
0.000878274
0.000864589
0.000849702
0.00083437
0.00081893
0.000803506
0.000788108
0.000772708
0.000757265
0.000741744
0.00072612
0.000710379
0.000694519
0.000678544
0.000662464
0.000646295
0.000630055
0.000613763
0.000597441
0.000581113
0.000564806
0.000548546
0.000532364
0.000516289
0.000500353
0.000484588
0.000469021
0.000453678
0.000438582
0.000423746
0.000409177
0.000394877
0.000380837
0.000367044
0.000353479
0.00034012
0.000326943
0.000313926
0.000301048
0.00028829
0.000275637
0.000263076
0.000250593
0.00023818
0.000225825
0.000213519
0.000201253
0.000189016
0.000176801
0.000164601
0.000152409
0.000140223
0.00012804
0.000115858
0.000103677
9.14963e-05
7.93147e-05
6.71311e-05
5.49434e-05
4.27498e-05
3.05471e-05
1.8335e-05
6.11367e-06
-0.0257923
-0.0209021
-0.0161648
-0.0119767
-0.00851874
-0.00581255
-0.00378195
-0.00230802
-0.00126582
-0.000544031
-5.24286e-05
0.000277724
0.000496596
0.000639691
0.000731573
0.000788956
0.000823086
0.000841469
0.000849105
0.000849318
0.000844338
0.000835671
0.000824351
0.0008111
0.000796436
0.000780734
0.000764276
0.000747274
0.000729894
0.000712259
0.000694471
0.000676604
0.00065872
0.000640866
0.000623081
0.000605396
0.000587838
0.000570432
0.000553202
0.000536168
0.000519354
0.000502781
0.00048647
0.000470439
0.000454704
0.000439275
0.00042416
0.000409356
0.000394859
0.000380656
0.000366727
0.000353053
0.000339607
0.000326365
0.000313303
0.000300396
0.000287626
0.000274972
0.00026242
0.000249956
0.000237566
0.000225238
0.000212963
0.000200728
0.000188526
0.000176345
0.000164181
0.000152026
0.000139877
0.000127731
0.000115586
0.00010344
9.12935e-05
7.91435e-05
6.69893e-05
5.48291e-05
4.26614e-05
3.04836e-05
1.82963e-05
6.1005e-06
-0.0246543
-0.0205929
-0.0165252
-0.012787
-0.00956769
-0.0069318
-0.00485644
-0.00327106
-0.00208755
-0.00121919
-0.000590259
-0.000139201
0.000181684
0.000408195
0.000566621
0.000675992
0.00074997
0.000798325
0.000828052
0.000844167
0.000850296
0.000849077
0.000842447
0.000831839
0.000818325
0.000802709
0.000785601
0.000767461
0.000748637
0.000729393
0.000709928
0.000690388
0.000670885
0.000651498
0.000632287
0.000613294
0.000594552
0.000576085
0.000557914
0.000540053
0.000522518
0.000505322
0.000488475
0.000471986
0.000455861
0.000440102
0.000424707
0.000409668
0.000394973
0.000380603
0.000366537
0.00035275
0.000339214
0.000325903
0.00031279
0.00029985
0.00028706
0.000274399
0.000261849
0.000249395
0.000237021
0.000224715
0.000212463
0.000200255
0.000188081
0.000175931
0.000163798
0.000151675
0.000139559
0.000127446
0.000115333
0.000103219
9.1103e-05
7.89818e-05
6.68547e-05
5.472e-05
4.25766e-05
3.04226e-05
1.82591e-05
6.08787e-06
-0.0236276
-0.020214
-0.0166963
-0.0133546
-0.0103718
-0.00783529
-0.00575769
-0.00410462
-0.0028182
-0.00183386
-0.00109031
-0.000534312
-0.00012212
0.000180958
0.000401768
0.000560766
0.000673391
0.000751238
0.000802999
0.000835196
0.000852735
0.000859313
0.00085773
0.000850108
0.000838063
0.000822823
0.000805324
0.000786275
0.000766213
0.00074554
0.000724558
0.000703486
0.000682486
0.000661674
0.00064113
0.000620911
0.000601054
0.000581587
0.000562525
0.000543879
0.000525659
0.000507867
0.000490506
0.000473577
0.000457077
0.000440998
0.000425332
0.000410064
0.000395174
0.000380642
0.000366441
0.000352542
0.000338917
0.000325535
0.00031237
0.000299392
0.000286578
0.000273905
0.000261353
0.000248904
0.000236541
0.000224251
0.000212018
0.000199832
0.000187681
0.000175557
0.00016345
0.000151356
0.000139269
0.000127184
0.000115101
0.000103016
9.09264e-05
7.88312e-05
6.67289e-05
5.46176e-05
4.24966e-05
3.03649e-05
1.82239e-05
6.07597e-06
-0.0227299
-0.0198195
-0.016747
-0.013744
-0.0109806
-0.00855438
-0.00650075
-0.00481158
-0.00345292
-0.00237911
-0.0015422
-0.000897422
-0.000405696
-3.43443e-05
0.000243185
0.000448053
0.000596915
0.00070277
0.000775711
0.000823553
0.000852333
0.000866711
0.000870283
0.000865816
0.000855442
0.000840795
0.000823124
0.00080338
0.000782283
0.000760372
0.000738049
0.000715605
0.000693256
0.000671149
0.000649391
0.000628049
0.00060717
0.000586781
0.000566897
0.000547526
0.00052867
0.000510324
0.000492486
0.000475145
0.000458293
0.000441914
0.000425992
0.000410507
0.000395434
0.000380747
0.000366417
0.000352411
0.0003387
0.00032525
0.000312032
0.000299016
0.000286176
0.000273488
0.00026093
0.000248482
0.000236126
0.000223847
0.000211629
0.00019946
0.000187329
0.000175226
0.000163142
0.000151072
0.00013901
0.000126951
0.000114892
0.000102832
9.07665e-05
7.86944e-05
6.6614e-05
5.45237e-05
4.24231e-05
3.03116e-05
1.81914e-05
6.06506e-06
-0.021967
-0.0194446
-0.0167266
-0.0140051
-0.0114353
-0.00911776
-0.00710185
-0.00539801
-0.00399062
-0.0028495
-0.00193839
-0.00122043
-0.000661357
-0.000230941
9.65222e-05
0.000342373
0.000524025
0.000655511
0.000748039
0.000810494
0.000849886
0.000871718
0.000880296
0.000878971
0.000870344
0.000856421
0.000838746
0.000818493
0.000796555
0.000773598
0.000750119
0.000726481
0.000702946
0.000679697
0.000656861
0.000634521
0.00061273
0.000591517
0.000570898
0.000550875
0.000531446
0.000512602
0.000494331
0.000476618
0.000459446
0.000442794
0.000426639
0.000410956
0.000395715
0.000380887
0.000366438
0.000352334
0.000338543
0.000325029
0.000311761
0.000298708
0.000285843
0.000273139
0.000260573
0.000248123
0.000235771
0.000223499
0.000211293
0.000199138
0.000187023
0.000174938
0.000162874
0.000150823
0.000138782
0.000126745
0.000114708
0.000102669
9.06245e-05
7.85724e-05
6.65113e-05
5.44395e-05
4.2357e-05
3.02635e-05
1.81621e-05
6.05528e-06
-0.0213389
-0.0191113
-0.0166699
-0.0141755
-0.0117691
-0.00955029
-0.00757668
-0.00587143
-0.00443259
-0.0032422
-0.00227369
-0.00149718
-0.000882885
-0.000403117
-3.32852e-05
0.000247788
0.000457934
0.000611911
0.000721776
0.000797277
0.000846227
0.000874839
0.000888027
0.000889648
0.000882716
0.000869565
0.000851999
0.000831392
0.00080879
0.000784977
0.000760536
0.000735891
0.000711349
0.000687125
0.000663367
0.000640169
0.000617593
0.000595669
0.000574414
0.000553827
0.000533902
0.000514624
0.000495978
0.00047794
0.000460489
0.000443598
0.000427239
0.000411382
0.000395994
0.000381041
0.000366487
0.000352296
0.000338433
0.000324862
0.00031155
0.000298464
0.000285574
0.000272854
0.000260279
0.000247827
0.000235476
0.00022321
0.000211012
0.000198867
0.000186765
0.000174694
0.000162646
0.000150613
0.000138589
0.00012657
0.000114551
0.000102529
9.05025e-05
7.84674e-05
6.64226e-05
5.43666e-05
4.22996e-05
3.02216e-05
1.81367e-05
6.0468e-06
-0.0208426
-0.0188333
-0.0166012
-0.0142831
-0.0120078
-0.00987247
-0.00793914
-0.00623946
-0.00478132
-0.00355603
-0.00254468
-0.00172311
-0.0010654
-0.000546204
-0.000142081
0.000167808
0.000401479
0.000574175
0.000698577
0.000785091
0.000842165
0.000876585
0.000893761
0.000897965
0.000892554
0.000880139
0.000862738
0.000841898
0.000818795
0.00079431
0.000769099
0.000743642
0.000718284
0.000693266
0.000668753
0.000644853
0.000621632
0.000599124
0.000577345
0.000556293
0.000535958
0.000516322
0.000497364
0.000479057
0.000461374
0.000444284
0.000427756
0.000411753
0.000396242
0.000381185
0.000366544
0.00035228
0.000338358
0.000324738
0.000311388
0.000298273
0.000285362
0.000272628
0.000260045
0.000247588
0.000235238
0.000222975
0.000210783
0.000198647
0.000186555
0.000174496
0.00016246
0.00015044
0.00013843
0.000126425
0.000114421
0.000102414
9.04017e-05
7.83803e-05
6.6349e-05
5.43062e-05
4.2252e-05
3.0187e-05
1.81155e-05
6.03973e-06
-0.020474
-0.0186191
-0.0165372
-0.0143479
-0.0121709
-0.0101004
-0.00820076
-0.00650898
-0.00503971
-0.00379088
-0.00274924
-0.00189499
-0.00120525
-0.00065658
-0.000226556
0.000105285
0.00035701
0.000544161
0.000679852
0.000774967
0.000838419
0.000877426
0.000897773
0.000904053
0.000899884
0.000888092
0.000870866
0.000849883
0.000826421
0.000801441
0.000775656
0.000749587
0.00072361
0.000697989
0.000672901
0.000648465
0.00062475
0.000601795
0.000579614
0.000558205
0.000537555
0.000517644
0.000498445
0.000479931
0.000462069
0.000444826
0.000428166
0.000412051
0.000396445
0.000381307
0.000366597
0.000352277
0.000338308
0.000324651
0.00031127
0.000298132
0.000285205
0.000272459
0.000259869
0.000247409
0.000235058
0.000222797
0.00021061
0.00019848
0.000186395
0.000174344
0.000162317
0.000150307
0.000138308
0.000126314
0.000114321
0.000102325
9.03236e-05
7.83128e-05
6.62918e-05
5.42593e-05
4.22154e-05
3.01605e-05
1.80992e-05
6.03415e-06
-0.0202287
-0.0184736
-0.0164889
-0.0143838
-0.0122723
-0.010246
-0.00837032
-0.0066855
-0.00521035
-0.00394708
-0.00288614
-0.00201066
-0.00129984
-0.000731594
-0.000284235
6.23914e-05
0.000326338
0.00052332
0.000666721
0.000767732
0.000835574
0.000877751
0.0009003
0.000908031
0.000904741
0.0008934
0.000876314
0.000855252
0.000831562
0.000806256
0.000780089
0.000753611
0.000727219
0.000701191
0.000675717
0.000650918
0.00062687
0.000603612
0.000581159
0.000559508
0.000538645
0.000518546
0.000499185
0.00048053
0.000462546
0.000445198
0.000428449
0.000412258
0.000396586
0.000381392
0.000366637
0.000352278
0.000338276
0.000324593
0.000311192
0.000298038
0.000285099
0.000272344
0.000259749
0.000247286
0.000234935
0.000222675
0.00021049
0.000198364
0.000186284
0.000174238
0.000162218
0.000150215
0.000138224
0.000126237
0.000114252
0.000102264
9.02691e-05
7.82657e-05
6.62519e-05
5.42266e-05
4.21901e-05
3.01426e-05
1.80881e-05
6.03006e-06
-0.0201049
-0.0184
-0.0164633
-0.0143996
-0.0123207
-0.0103169
-0.00845369
-0.00677283
-0.0052952
-0.00402506
-0.00295474
-0.00206881
-0.00134754
-0.00076953
-0.000313486
4.05747e-05
0.000310686