/*--------------------------------*- C++ -*----------------------------------*\
  =========                 |
  \\      /  F ield         | OpenFOAM: The Open Source CFD Toolbox
   \\    /   O peration     | Website:  https://openfoam.org
    \\  /    A nd           | Version:  10
     \\/     M anipulation  |
\*---------------------------------------------------------------------------*/
FoamFile
{
    format      ascii;
    class       pointScalarField;
    location    "0";
    object      streamFunction;
}
// * * * * * * * * * * * * * * * * * * * * * * * * * * * * * * * * * * * * * //

dimensions      [0 3 -1 0 0 0 0];

internalField   nonuniform List<scalar> 
15640
(
6.9991
7.12872
7.24202
7.34495
7.4409
7.53195
7.61944
7.70424
7.78862
7.8697
7.94936
6.99909
7.13859
7.26044
7.37111
7.47428
7.57219
7.66627
7.75746
7.8481
7.93534
8.02117
6.99907
7.14757
7.27721
7.39496
7.50472
7.60888
7.70897
7.80763
7.90233
7.99521
8.08674
6.99908
7.15565
7.29229
7.41638
7.53205
7.64181
7.7489
7.85115
7.95093
8.04879
8.14519
6.99907
7.16274
7.30555
7.43522
7.55608
7.67239
7.78258
7.88939
7.99361
8.09581
8.19641
6.99908
7.16883
7.31692
7.45137
7.5783
7.69719
7.81142
7.92213
8.03015
8.13604
8.24026
6.99907
7.17388
7.32634
7.46635
7.59533
7.7177
7.83525
7.94919
8.06034
8.16929
8.27651
7.00028
7.17906
7.33537
7.47685
7.6087
7.73379
7.85395
7.9704
8.08401
8.19537
8.30496
7.00028
7.18196
7.34072
7.48443
7.61833
7.74536
7.86739
7.98565
8.10101
8.2141
8.3254
7.00028
7.18376
7.34367
7.48877
7.62396
7.75221
7.87538
7.99474
8.11117
8.22532
8.3377
7.00028
7.18449
7.34486
7.49038
7.62596
7.75458
7.8781
7.9978
8.11456
8.22905
8.34175
6.9991
7.12872
7.24202
7.34495
7.4409
7.53195
7.61944
7.70424
7.78862
7.8697
7.94936
6.99909
7.13859
7.26044
7.37111
7.47428
7.57219
7.66627
7.75746
7.8481
7.93534
8.02117
6.99907
7.14757
7.27721
7.39496
7.50472
7.60888
7.70897
7.80763
7.90233
7.99521
8.08674
6.99908
7.15565
7.29229
7.41638
7.53205
7.64181
7.7489
7.85115
7.95093
8.04879
8.14519
6.99907
7.16274
7.30555
7.43522
7.55608
7.67239
7.78258
7.88939
7.99361
8.09581
8.19641
6.99908
7.16883
7.31692
7.45137
7.5783
7.69719
7.81142
7.92213
8.03015
8.13604
8.24026
6.99907
7.17388
7.32634
7.46635
7.59533
7.7177
7.83525
7.94919
8.06034
8.16929
8.27651
7.00028
7.17906
7.33537
7.47685
7.6087
7.73379
7.85395
7.9704
8.08401
8.19537
8.30496
7.00028
7.18196
7.34072
7.48443
7.61833
7.74536
7.86739
7.98565
8.10101
8.2141
8.3254
7.00028
7.18376
7.34367
7.48877
7.62396
7.75221
7.87538
7.99474
8.11117
8.22532
8.3377
7.00028
7.18449
7.34486
7.49038
7.62596
7.75458
7.8781
7.9978
8.11456
8.22905
8.34175
6.99896
6.99897
6.99899
6.999
6.99901
6.99902
6.99903
6.99904
6.99905
6.99906
6.99906
6.99961
7.01409
7.02667
7.03807
7.0487
7.05877
7.06843
7.07778
7.08688
7.09579
7.10453
6.99955
7.02837
7.05344
7.07617
7.09735
7.11743
7.1367
7.15535
7.17351
7.19127
7.20869
6.9995
7.04248
7.07988
7.11381
7.14542
7.17539
7.20416
7.232
7.25912
7.28564
7.31165
6.99945
7.05631
7.10582
7.15074
7.19259
7.23228
7.27038
7.30727
7.3432
7.37836
7.41285
6.99938
7.06976
7.13107
7.18671
7.23856
7.28773
7.33495
7.38068
7.42524
7.46887
7.51169
6.99932
7.08277
7.15551
7.22153
7.28305
7.34141
7.39747
7.45178
7.50474
7.55661
7.6076
6.99924
7.09525
7.17895
7.25495
7.32578
7.39299
7.45755
7.52012
7.58116
7.641
7.69992
6.99917
7.10711
7.20128
7.28679
7.3665
7.44214
7.5148
7.58524
7.65398
7.7214
7.788
6.99912
7.11829
7.22234
7.31685
7.40495
7.48855
7.56888
7.64674
7.72272
7.79737
7.87073
6.99896
6.99897
6.99899
6.999
6.99901
6.99902
6.99903
6.99904
6.99905
6.99906
6.99906
6.99961
7.01409
7.02667
7.03807
7.0487
7.05877
7.06843
7.07778
7.08688
7.09579
7.10453
6.99955
7.02837
7.05344
7.07617
7.09735
7.11743
7.1367
7.15535
7.17351
7.19127
7.20869
6.9995
7.04248
7.07988
7.11381
7.14542
7.17539
7.20416
7.232
7.25912
7.28564
7.31165
6.99945
7.05631
7.10582
7.15074
7.19259
7.23228
7.27038
7.30727
7.3432
7.37836
7.41285
6.99938
7.06976
7.13107
7.18671
7.23856
7.28773
7.33495
7.38068
7.42524
7.46887
7.51169
6.99932
7.08277
7.15551
7.22153
7.28305
7.34141
7.39747
7.45178
7.50474
7.55661
7.6076
6.99924
7.09525
7.17895
7.25495
7.32578
7.39299
7.45755
7.52012
7.58116
7.641
7.69992
6.99917
7.10711
7.20128
7.28679
7.3665
7.44214
7.5148
7.58524
7.65398
7.7214
7.788
6.99912
7.11829
7.22234
7.31685
7.40495
7.48855
7.56888
7.64674
7.72272
7.79737
7.87073
6.9992
6.99935
6.99944
6.9995
6.99952
6.99955
6.99956
6.99963
6.99964
6.99965
6.99965
6.99965
6.99965
6.99965
6.99965
6.99965
6.99964
6.99964
6.99964
6.99963
6.99963
6.99963
6.99963
6.99963
6.99963
6.99963
6.99964
6.99964
6.99964
6.99964
6.99965
6.99965
6.99966
6.99966
6.99966
6.99967
6.99967
6.99968
6.99968
6.99968
6.99969
6.99969
6.99969
6.9997
6.9997
6.9997
6.9997
6.9997
6.9997
6.9997
6.9997
6.9997
6.9997
6.9997
6.9997
6.99969
6.99969
6.99969
6.99969
6.99968
6.99968
6.99968
6.99968
6.99968
6.99967
6.99967
6.99967
6.99967
6.99966
6.99966
6.99966
6.99966
6.99966
6.99966
6.99966
6.99966
6.99966
6.99966
6.99966
6.99966
7.10868
7.11111
7.11254
7.11345
7.11407
7.11449
7.11476
7.11496
7.11507
7.1151
7.1151
7.11507
7.11501
7.11493
7.11484
7.11474
7.11462
7.11451
7.11438
7.11426
7.11413
7.114
7.11386
7.11373
7.1136
7.11346
7.11332
7.11319
7.11305
7.11291
7.11277
7.11264
7.1125
7.11236
7.11222
7.11208
7.11194
7.1118
7.11167
7.11152
7.11139
7.11124
7.1111
7.11096
7.11082
7.11068
7.11053
7.11039
7.11024
7.1101
7.10995
7.10981
7.10966
7.10951
7.10937
7.10922
7.10907
7.10892
7.10878
7.10863
7.10848
7.10833
7.10819
7.10804
7.10789
7.10774
7.1076
7.10745
7.1073
7.10716
7.10701
7.10686
7.10672
7.10657
7.10642
7.10628
7.10613
7.10599
7.10584
7.10569
7.21752
7.22225
7.22504
7.22684
7.22802
7.22881
7.22939
7.2297
7.22989
7.22996
7.22995
7.22989
7.22978
7.22963
7.22946
7.22927
7.22906
7.22883
7.2286
7.22836
7.22811
7.22785
7.22759
7.22734
7.22707
7.22681
7.22654
7.22627
7.226
7.22573
7.22546
7.22519
7.22492
7.22465
7.22438
7.2241
7.22383
7.22355
7.22328
7.223
7.22273
7.22245
7.22218
7.2219
7.22162
7.22134
7.22106
7.22078
7.22051
7.22022
7.21994
7.21966
7.21938
7.21909
7.21881
7.21853
7.21824
7.21796
7.21768
7.21739
7.21711
7.21683
7.21654
7.21626
7.21597
7.21569
7.21541
7.21512
7.21484
7.21456
7.21428
7.21399
7.21371
7.21343
7.21314
7.21286
7.21258
7.2123
7.21202
7.21173
7.32478
7.3319
7.33614
7.33887
7.34068
7.34196
7.34273
7.34321
7.34349
7.34362
7.34362
7.34354
7.3434
7.34319
7.34295
7.34268
7.34239
7.34207
7.34174
7.3414
7.34104
7.34068
7.34032
7.33995
7.33957
7.3392
7.33882
7.33843
7.33805
7.33767
7.33728
7.33689
7.3365
7.33611
7.33572
7.33533
7.33494
7.33455
7.33416
7.33377
7.33337
7.33298
7.33258
7.33219
7.3318
7.3314
7.331
7.3306
7.33021
7.32981
7.32941
7.32901
7.32861
7.32821
7.3278
7.3274
7.327
7.3266
7.3262
7.3258
7.32539
7.32499
7.32459
7.32419
7.32379
7.32339
7.32298
7.32258
7.32218
7.32178
7.32138
7.32098
7.32058
7.32018
7.31977
7.31937
7.31897
7.31857
7.31817
7.31777
7.43003
7.43953
7.44527
7.44899
7.45154
7.45318
7.45423
7.45489
7.4553
7.45549
7.45553
7.45545
7.45528
7.45505
7.45476
7.45444
7.45408
7.45369
7.45329
7.45287
7.45243
7.45199
7.45154
7.45109
7.45062
7.45016
7.44969
7.44922
7.44874
7.44827
7.44779
7.44731
7.44683
7.44635
7.44587
7.44539
7.44491
7.44442
7.44394
7.44345
7.44297
7.44249
7.442
7.44151
7.44103
7.44054
7.44005
7.43956
7.43907
7.43858
7.43809
7.4376
7.43711
7.43661
7.43612
7.43563
7.43514
7.43464
7.43415
7.43366
7.43317
7.43267
7.43218
7.43169
7.43119
7.4307
7.43021
7.42971
7.42922
7.42873
7.42824
7.42775
7.42725
7.42676
7.42627
7.42578
7.42529
7.4248
7.42431
7.42381
7.53261
7.54452
7.55184
7.55669
7.55985
7.56194
7.56331
7.56417
7.56472
7.565
7.56509
7.56505
7.56489
7.56465
7.56434
7.56399
7.5636
7.56317
7.56273
7.56226
7.56178
7.56128
7.56078
7.56027
7.55975
7.55923
7.5587
7.55818
7.55764
7.55711
7.55658
7.55604
7.5555
7.55496
7.55443
7.55389
7.55335
7.55281
7.55227
7.55172
7.55118
7.55064
7.5501
7.54956
7.54901
7.54847
7.54792
7.54738
7.54683
7.54629
7.54574
7.54519
7.54464
7.5441
7.54355
7.543
7.54245
7.5419
7.54135
7.54081
7.54026
7.53971
7.53916
7.53861
7.53806
7.53752
7.53697
7.53642
7.53587
7.53532
7.53478
7.53423
7.53368
7.53314
7.53259
7.53204
7.53149
7.53095
7.5304
7.52985
7.63193
7.6463
7.65539
7.66125
7.66512
7.66769
7.66938
7.67048
7.67119
7.6716
7.67177
7.67179
7.67167
7.67146
7.67117
7.67083
7.67044
7.67001
7.66956
7.66908
7.66858
7.66808
7.66756
7.66704
7.6665
7.66596
7.66542
7.66488
7.66433
7.66378
7.66323
7.66267
7.66212
7.66157
7.66101
7.66046
7.6599
7.65935
7.65879
7.65824
7.65768
7.65713
7.65657
7.65601
7.65546
7.6549
7.65434
7.65378
7.65323
7.65267
7.65211
7.65155
7.65099
7.65043
7.64987
7.64931
7.64875
7.64819
7.64763
7.64707
7.64651
7.64595
7.64539
7.64483
7.64427
7.64371
7.64315
7.64259
7.64203
7.64148
7.64092
7.64036
7.6398
7.63924
7.63868
7.63812
7.63757
7.63701
7.63645
7.63589
7.72742
7.74449
7.75523
7.7622
7.7668
7.76986
7.77191
7.77328
7.77419
7.77474
7.77504
7.77515
7.77511
7.77497
7.77474
7.77444
7.7741
7.77371
7.77329
7.77285
7.77239
7.77192
7.77143
7.77094
7.77043
7.76993
7.76941
7.7689
7.76838
7.76787
7.76734
7.76683
7.7663
7.76578
7.76526
7.76474
7.76422
7.7637
7.76318
7.76266
7.76215
7.76163
7.76111
7.76059
7.76007
7.75955
7.75903
7.75851
7.75799
7.75748
7.75695
7.75644
7.75592
7.7554
7.75488
7.75436
7.75384
7.75332
7.7528
7.75228
7.75176
7.75124
7.75073
7.75021
7.74969
7.74917
7.74865
7.74814
7.74762
7.7471
7.74658
7.74607
7.74555
7.74503
7.74452
7.744
7.74348
7.74297
7.74245
7.74193
7.8187
7.83841
7.85094
7.85904
7.86438
7.86796
7.8704
7.87206
7.8732
7.87395
7.8744
7.87466
7.87474
7.8747
7.87457
7.87438
7.87412
7.87382
7.87349
7.87314
7.87276
7.87236
7.87196
7.87155
7.87113
7.87071
7.87028
7.86985
7.86942
7.86899
7.86855
7.86812
7.86769
7.86726
7.86683
7.8664
7.86598
7.86555
7.86512
7.8647
7.86427
7.86385
7.86342
7.86301
7.86258
7.86216
7.86174
7.86132
7.8609
7.86048
7.86005
7.85964
7.85922
7.8588
7.85838
7.85796
7.85754
7.85712
7.8567
7.85629
7.85587
7.85545
7.85504
7.85462
7.8542
7.85379
7.85337
7.85295
7.85254
7.85212
7.85171
7.85129
7.85088
7.85046
7.85005
7.84963
7.84922
7.8488
7.84839
7.84797
7.90488
7.92778
7.9421
7.95133
7.95744
7.96159
7.96444
7.96643
7.96784
7.96882
7.96947
7.9699
7.97015
7.97026
7.97028
7.97022
7.97011
7.96995
7.96975
7.96953
7.96929
7.96903
7.96877
7.96849
7.96821
7.96793
7.96765
7.96736
7.96708
7.96679
7.96651
7.96622
7.96594
7.96567
7.96539
7.96511
7.96484
7.96457
7.9643
7.96404
7.96377
7.96351
7.96325
7.96299
7.96273
7.96247
7.96221
7.96195
7.9617
7.96144
7.96119
7.96094
7.96068
7.96043
7.96018
7.95993
7.95968
7.95943
7.95918
7.95893
7.95868
7.95844
7.95819
7.95794
7.9577
7.95745
7.9572
7.95696
7.95671
7.95647
7.95622
7.95598
7.95573
7.95549
7.95524
7.95499
7.95475
7.9545
7.95426
7.95401
7.98485
8.01072
8.02701
8.03756
8.04461
8.04944
8.05283
8.05526
8.05703
8.05833
8.05927
8.05996
8.06045
8.06081
8.06105
8.06122
8.06132
8.06138
8.0614
8.06139
8.06136
8.06132
8.06127
8.06121
8.06115
8.06109
8.06102
8.06096
8.06089
8.06083
8.06077
8.06071
8.06066
8.06061
8.06056
8.06052
8.06048
8.06044
8.0604
8.06037
8.06034
8.06031
8.06029
8.06027
8.06025
8.06023
8.06021
8.06019
8.06017
8.06016
8.06015
8.06014
8.06013
8.06012
8.06011
8.0601
8.06009
8.06009
8.06008
8.06008
8.06007
8.06007
8.06007
8.06007
8.06007
8.06006
8.06006
8.06006
8.06006
8.06006
8.06006
8.06006
8.06006
8.06006
8.06005
8.06005
8.06005
8.06005
8.06005
8.06005
6.9992
6.99935
6.99944
6.9995
6.99952
6.99955
6.99956
6.99963
6.99964
6.99965
6.99965
6.99965
6.99965
6.99965
6.99965
6.99965
6.99964
6.99964
6.99964
6.99963
6.99963
6.99963
6.99963
6.99963
6.99963
6.99963
6.99964
6.99964
6.99964
6.99964
6.99965
6.99965
6.99966
6.99966
6.99966
6.99967
6.99967
6.99968
6.99968
6.99968
6.99969
6.99969
6.99969
6.9997
6.9997
6.9997
6.9997
6.9997
6.9997
6.9997
6.9997
6.9997
6.9997
6.9997
6.9997
6.99969
6.99969
6.99969
6.99969
6.99968
6.99968
6.99968
6.99968
6.99968
6.99967
6.99967
6.99967
6.99967
6.99966
6.99966
6.99966
6.99966
6.99966
6.99966
6.99966
6.99966
6.99966
6.99966
6.99966
6.99966
7.10868
7.11111
7.11254
7.11345
7.11407
7.11449
7.11476
7.11496
7.11507
7.1151
7.1151
7.11507
7.11501
7.11493
7.11484
7.11474
7.11462
7.11451
7.11438
7.11426
7.11413
7.114
7.11386
7.11373
7.1136
7.11346
7.11332
7.11319
7.11305
7.11291
7.11277
7.11264
7.1125
7.11236
7.11222
7.11208
7.11194
7.1118
7.11167
7.11152
7.11139
7.11124
7.1111
7.11096
7.11082
7.11068
7.11053
7.11039
7.11024
7.1101
7.10995
7.10981
7.10966
7.10951
7.10937
7.10922
7.10907
7.10892
7.10878
7.10863
7.10848
7.10833
7.10819
7.10804
7.10789
7.10774
7.1076
7.10745
7.1073
7.10716
7.10701
7.10686
7.10672
7.10657
7.10642
7.10628
7.10613
7.10599
7.10584
7.10569
7.21752
7.22225
7.22504
7.22684
7.22802
7.22881
7.22939
7.2297
7.22989
7.22996
7.22995
7.22989
7.22978
7.22963
7.22946
7.22927
7.22906
7.22883
7.2286
7.22836
7.22811
7.22785
7.22759
7.22734
7.22707
7.22681
7.22654
7.22627
7.226
7.22573
7.22546
7.22519
7.22492
7.22465
7.22438
7.2241
7.22383
7.22355
7.22328
7.223
7.22273
7.22245
7.22218
7.2219
7.22162
7.22134
7.22106
7.22078
7.22051
7.22022
7.21994
7.21966
7.21938
7.21909
7.21881
7.21853
7.21824
7.21796
7.21768
7.21739
7.21711
7.21683
7.21654
7.21626
7.21597
7.21569
7.21541
7.21512
7.21484
7.21456
7.21428
7.21399
7.21371
7.21343
7.21314
7.21286
7.21258
7.2123
7.21202
7.21173
7.32478
7.3319
7.33614
7.33887
7.34068
7.34196
7.34273
7.34321
7.34349
7.34362
7.34362
7.34354
7.3434
7.34319
7.34295
7.34268
7.34239
7.34207
7.34174
7.3414
7.34104
7.34068
7.34032
7.33995
7.33957
7.3392
7.33882
7.33843
7.33805
7.33767
7.33728
7.33689
7.3365
7.33611
7.33572
7.33533
7.33494
7.33455
7.33416
7.33377
7.33337
7.33298
7.33258
7.33219
7.3318
7.3314
7.331
7.3306
7.33021
7.32981
7.32941
7.32901
7.32861
7.32821
7.3278
7.3274
7.327
7.3266
7.3262
7.3258
7.32539
7.32499
7.32459
7.32419
7.32379
7.32339
7.32298
7.32258
7.32218
7.32178
7.32138
7.32098
7.32058
7.32018
7.31977
7.31937
7.31897
7.31857
7.31817
7.31777
7.43003
7.43953
7.44527
7.44899
7.45154
7.45318
7.45423
7.45489
7.4553
7.45549
7.45553
7.45545
7.45528
7.45505
7.45476
7.45444
7.45408
7.45369
7.45329
7.45287
7.45243
7.45199
7.45154
7.45109
7.45062
7.45016
7.44969
7.44922
7.44874
7.44827
7.44779
7.44731
7.44683
7.44635
7.44587
7.44539
7.44491
7.44442
7.44394
7.44345
7.44297
7.44249
7.442
7.44151
7.44103
7.44054
7.44005
7.43956
7.43907
7.43858
7.43809
7.4376
7.43711
7.43661
7.43612
7.43563
7.43514
7.43464
7.43415
7.43366
7.43317
7.43267
7.43218
7.43169
7.43119
7.4307
7.43021
7.42971
7.42922
7.42873
7.42824
7.42775
7.42725
7.42676
7.42627
7.42578
7.42529
7.4248
7.42431
7.42381
7.53261
7.54452
7.55184
7.55669
7.55985
7.56194
7.56331
7.56417
7.56472
7.565
7.56509
7.56505
7.56489
7.56465
7.56434
7.56399
7.5636
7.56317
7.56273
7.56226
7.56178
7.56128
7.56078
7.56027
7.55975
7.55923
7.5587
7.55818
7.55764
7.55711
7.55658
7.55604
7.5555
7.55496
7.55443
7.55389
7.55335
7.55281
7.55227
7.55172
7.55118
7.55064
7.5501
7.54956
7.54901
7.54847
7.54792
7.54738
7.54683
7.54629
7.54574
7.54519
7.54464
7.5441
7.54355
7.543
7.54245
7.5419
7.54135
7.54081
7.54026
7.53971
7.53916
7.53861
7.53806
7.53752
7.53697
7.53642
7.53587
7.53532
7.53478
7.53423
7.53368
7.53314
7.53259
7.53204
7.53149
7.53095
7.5304
7.52985
7.63193
7.6463
7.65539
7.66125
7.66512
7.66769
7.66938
7.67048
7.67119
7.6716
7.67177
7.67179
7.67167
7.67146
7.67117
7.67083
7.67044
7.67001
7.66956
7.66908
7.66858
7.66808
7.66756
7.66704
7.6665
7.66596
7.66542
7.66488
7.66433
7.66378
7.66323
7.66267
7.66212
7.66157
7.66101
7.66046
7.6599
7.65935
7.65879
7.65824
7.65768
7.65713
7.65657
7.65601
7.65546
7.6549
7.65434
7.65378
7.65323
7.65267
7.65211
7.65155
7.65099
7.65043
7.64987
7.64931
7.64875
7.64819
7.64763
7.64707
7.64651
7.64595
7.64539
7.64483
7.64427
7.64371
7.64315
7.64259
7.64203
7.64148
7.64092
7.64036
7.6398
7.63924
7.63868
7.63812
7.63757
7.63701
7.63645
7.63589
7.72742
7.74449
7.75523
7.7622
7.7668
7.76986
7.77191
7.77328
7.77419
7.77474
7.77504
7.77515
7.77511
7.77497
7.77474
7.77444
7.7741
7.77371
7.77329
7.77285
7.77239
7.77192
7.77143
7.77094
7.77043
7.76993
7.76941
7.7689
7.76838
7.76787
7.76734
7.76683
7.7663
7.76578
7.76526
7.76474
7.76422
7.7637
7.76318
7.76266
7.76215
7.76163
7.76111
7.76059
7.76007
7.75955
7.75903
7.75851
7.75799
7.75748
7.75695
7.75644
7.75592
7.7554
7.75488
7.75436
7.75384
7.75332
7.7528
7.75228
7.75176
7.75124
7.75073
7.75021
7.74969
7.74917
7.74865
7.74814
7.74762
7.7471
7.74658
7.74607
7.74555
7.74503
7.74452
7.744
7.74348
7.74297
7.74245
7.74193
7.8187
7.83841
7.85094
7.85904
7.86438
7.86796
7.8704
7.87206
7.8732
7.87395
7.8744
7.87466
7.87474
7.8747
7.87457
7.87438
7.87412
7.87382
7.87349
7.87314
7.87276
7.87236
7.87196
7.87155
7.87113
7.87071
7.87028
7.86985
7.86942
7.86899
7.86855
7.86812
7.86769
7.86726
7.86683
7.8664
7.86598
7.86555
7.86512
7.8647
7.86427
7.86385
7.86342
7.86301
7.86258
7.86216
7.86174
7.86132
7.8609
7.86048
7.86005
7.85964
7.85922
7.8588
7.85838
7.85796
7.85754
7.85712
7.8567
7.85629
7.85587
7.85545
7.85504
7.85462
7.8542
7.85379
7.85337
7.85295
7.85254
7.85212
7.85171
7.85129
7.85088
7.85046
7.85005
7.84963
7.84922
7.8488
7.84839
7.84797
7.90488
7.92778
7.9421
7.95133
7.95744
7.96159
7.96444
7.96643
7.96784
7.96882
7.96947
7.9699
7.97015
7.97026
7.97028
7.97022
7.97011
7.96995
7.96975
7.96953
7.96929
7.96903
7.96877
7.96849
7.96821
7.96793
7.96765
7.96736
7.96708
7.96679
7.96651
7.96622
7.96594
7.96567
7.96539
7.96511
7.96484
7.96457
7.9643
7.96404
7.96377
7.96351
7.96325
7.96299
7.96273
7.96247
7.96221
7.96195
7.9617
7.96144
7.96119
7.96094
7.96068
7.96043
7.96018
7.95993
7.95968
7.95943
7.95918
7.95893
7.95868
7.95844
7.95819
7.95794
7.9577
7.95745
7.9572
7.95696
7.95671
7.95647
7.95622
7.95598
7.95573
7.95549
7.95524
7.95499
7.95475
7.9545
7.95426
7.95401
7.98485
8.01072
8.02701
8.03756
8.04461
8.04944
8.05283
8.05526
8.05703
8.05833
8.05927
8.05996
8.06045
8.06081
8.06105
8.06122
8.06132
8.06138
8.0614
8.06139
8.06136
8.06132
8.06127
8.06121
8.06115
8.06109
8.06102
8.06096
8.06089
8.06083
8.06077
8.06071
8.06066
8.06061
8.06056
8.06052
8.06048
8.06044
8.0604
8.06037
8.06034
8.06031
8.06029
8.06027
8.06025
8.06023
8.06021
8.06019
8.06017
8.06016
8.06015
8.06014
8.06013
8.06012
8.06011
8.0601
8.06009
8.06009
8.06008
8.06008
8.06007
8.06007
8.06007
8.06007
8.06007
8.06006
8.06006
8.06006
8.06006
8.06006
8.06006
8.06006
8.06006
8.06006
8.06005
8.06005
8.06005
8.06005
8.06005
8.06005
8.25037
8.27912
8.30179
8.31775
8.32891
8.33676
8.34236
8.34642
8.34941
8.35166
8.35333
8.35459
8.35554
8.35624
8.35677
8.35715
8.35744
8.35764
8.35778
8.35786
8.35792
8.35793
8.35794
8.35792
8.35789
8.35786
8.35782
8.35777
8.35772
8.35767
8.35762
8.35757
8.35753
8.35748
8.35744
8.3574
8.35736
8.35733
8.35729
8.35726
8.35723
8.35721
8.35719
8.35716
8.35715
8.35713
8.35711
8.35709
8.35708
8.35706
8.35705
8.35704
8.35703
8.35702
8.35701
8.357
8.35699
8.35699
8.35698
8.35698
8.35697
8.35697
8.35697
8.35696
8.35696
8.35696
8.35696
8.35696
8.35695
8.35695
8.35695
8.35695
8.35695
8.35695
8.35695
8.35695
8.35695
8.35695
8.35695
8.35695
8.35695
8.55652
8.57787
8.5968
8.61133
8.62219
8.63023
8.63619
8.64065
8.64402
8.64661
8.64858
8.65008
8.65125
8.65213
8.65281
8.65332
8.65371
8.65399
8.65421
8.65436
8.65446
8.65452
8.65456
8.65458
8.65458
8.65457
8.65455
8.65452
8.65449
8.65445
8.65442
8.65438
8.65434
8.6543
8.65427
8.65423
8.6542
8.65417
8.65415
8.65412
8.6541
8.65408
8.65406
8.65403
8.65402
8.654
8.65399
8.65397
8.65396
8.65395
8.65394
8.65393
8.65392
8.65391
8.6539
8.65389
8.65388
8.65388
8.65387
8.65387
8.65387
8.65386
8.65386
8.65386
8.65386
8.65385
8.65385
8.65385
8.65385
8.65385
8.65385
8.65385
8.65385
8.65385
8.65385
8.65384
8.65384
8.65384
8.65384
8.65384
8.65384
8.86327
8.87895
8.89437
8.90706
8.91712
8.9249
8.9309
8.93553
8.93911
8.94192
8.9441
8.94579
8.94712
8.94814
8.94894
8.94955
8.95003
8.9504
8.95067
8.95088
8.95103
8.95113
8.95121
8.95125
8.95128
8.95129
8.95129
8.95127
8.95126
8.95124
8.95121
8.95118
8.95115
8.95112
8.9511
8.95107
8.95105
8.95102
8.951
8.95098
8.95096
8.95094
8.95093
8.95091
8.9509
8.95088
8.95087
8.95086
8.95085
8.95084
8.95082
8.95081
8.95081
8.9508
8.95079
8.95078
8.95078
8.95077
8.95077
8.95076
8.95076
8.95076
8.95075
8.95075
8.95075
8.95075
8.95075
8.95074
8.95074
8.95074
8.95074
8.95074
8.95074
8.95074
8.95074
8.95074
8.95074
8.95074
8.95074
8.95074
8.95074
9.1695
9.18106
9.19351
9.20434
9.21336
9.22063
9.22643
9.23103
9.23468
9.23759
9.23989
9.24171
9.24316
9.24428
9.24518
9.24588
9.24643
9.24685
9.24718
9.24743
9.24763
9.24776
9.24787
9.24794
9.24799
9.24802
9.24803
9.24804
9.24803
9.24802
9.24801
9.24799
9.24797
9.24795
9.24793
9.24791
9.24789
9.24787
9.24785
9.24783
9.24782
9.2478
9.24779
9.24778
9.24777
9.24776
9.24775
9.24774
9.24773
9.24772
9.24771
9.2477
9.24769
9.24769
9.24768
9.24767
9.24767
9.24766
9.24766
9.24766
9.24765
9.24765
9.24765
9.24764
9.24764
9.24764
9.24764
9.24764
9.24764
9.24763
9.24763
9.24763
9.24763
9.24763
9.24763
9.24763
9.24763
9.24763
9.24763
9.24763
9.24763
9.47495
9.48352
9.49356
9.50268
9.51059
9.51721
9.52266
9.52709
9.53069
9.53362
9.53597
9.53785
9.53937
9.54057
9.54153
9.54229
9.54289
9.54337
9.54374
9.54403
9.54425
9.54442
9.54455
9.54464
9.54471
9.54476
9.54479
9.5448
9.54481
9.54481
9.54481
9.5448
9.54478
9.54477
9.54476
9.54474
9.54473
9.54471
9.5447
9.54469
9.54468
9.54467
9.54466
9.54465
9.54464
9.54464
9.54463
9.54462
9.54461
9.5446
9.5446
9.54459
9.54458
9.54458
9.54457
9.54456
9.54456
9.54455
9.54455
9.54455
9.54455
9.54454
9.54454
9.54454
9.54454
9.54453
9.54453
9.54453
9.54453
9.54453
9.54453
9.54453
9.54453
9.54453
9.54453
9.54452
9.54452
9.54452
9.54452
9.54452
9.54452
9.77962
9.78598
9.79409
9.80171
9.80857
9.81448
9.81948
9.82365
9.82711
9.82998
9.83232
9.83422
9.83576
9.837
9.838
9.8388
9.83944
9.83994
9.84035
9.84066
9.84091
9.8411
9.84125
9.84136
9.84145
9.84151
9.84155
9.84158
9.8416
9.84161
9.84161
9.84161
9.8416
9.84159
9.84159
9.84158
9.84157
9.84156
9.84155
9.84154
9.84154
9.84153
9.84153
9.84152
9.84152
9.84151
9.8415
9.8415
9.84149
9.84149
9.84148
9.84147
9.84147
9.84147
9.84146
9.84145
9.84145
9.84145
9.84144
9.84144
9.84144
9.84143
9.84143
9.84143
9.84143
9.84143
9.84143
9.84142
9.84142
9.84142
9.84142
9.84142
9.84142
9.84142
9.84142
9.84142
9.84142
9.84142
9.84142
9.84142
9.84142
10.0836
10.0883
10.0948
10.1012
10.1071
10.1123
10.1168
10.1206
10.1239
10.1266
10.1289
10.1308
10.1323
10.1336
10.1346
10.1354
10.1361
10.1366
10.137
10.1373
10.1376
10.1378
10.138
10.1381
10.1382
10.1383
10.1383
10.1384
10.1384
10.1384
10.1384
10.1384
10.1384
10.1384
10.1384
10.1384
10.1384
10.1384
10.1384
10.1384
10.1384
10.1384
10.1384
10.1384
10.1384
10.1384
10.1384
10.1384
10.1384
10.1384
10.1384
10.1384
10.1384
10.1384
10.1383
10.1383
10.1383
10.1383
10.1383
10.1383
10.1383
10.1383
10.1383
10.1383
10.1383
10.1383
10.1383
10.1383
10.1383
10.1383
10.1383
10.1383
10.1383
10.1383
10.1383
10.1383
10.1383
10.1383
10.1383
10.1383
10.1383
10.3868
10.3903
10.3956
10.4009
10.4059
10.4105
10.4145
10.418
10.421
10.4236
10.4258
10.4276
10.4291
10.4303
10.4313
10.4321
10.4328
10.4333
10.4337
10.4341
10.4343
10.4346
10.4347
10.4349
10.435
10.435
10.4351
10.4352
10.4352
10.4352
10.4352
10.4352
10.4352
10.4353
10.4353
10.4353
10.4353
10.4353
10.4353
10.4353
10.4353
10.4353
10.4353
10.4353
10.4353
10.4353
10.4353
10.4353
10.4353
10.4353
10.4352
10.4352
10.4352
10.4352
10.4352
10.4352
10.4352
10.4352
10.4352
10.4352
10.4352
10.4352
10.4352
10.4352
10.4352
10.4352
10.4352
10.4352
10.4352
10.4352
10.4352
10.4352
10.4352
10.4352
10.4352
10.4352
10.4352
10.4352
10.4352
10.4352
10.4352
10.6895
10.692
10.6964
10.7008
10.7051
10.709
10.7125
10.7156
10.7184
10.7208
10.7228
10.7245
10.7259
10.7271
10.7281
10.7289
10.7295
10.7301
10.7305
10.7308
10.7311
10.7313
10.7315
10.7316
10.7318
10.7318
10.7319
10.732
10.732
10.732
10.732
10.7321
10.7321
10.7321
10.7321
10.7321
10.7321
10.7321
10.7321
10.7321
10.7321
10.7321
10.7321
10.7321
10.7321
10.7321
10.7321
10.7321
10.7321
10.7321
10.7321
10.7321
10.7321
10.7321
10.7321
10.7321
10.7321
10.7321
10.7321
10.7321
10.7321
10.7321
10.7321
10.7321
10.7321
10.7321
10.7321
10.7321
10.7321
10.7321
10.7321
10.7321
10.7321
10.7321
10.7321
10.7321
10.7321
10.7321
10.7321
10.7321
10.7321
10.9918
10.9935
10.9971
11.0008
11.0043
11.0077
11.0108
11.0135
11.016
11.0182
11.02
11.0216
11.023
11.0241
11.025
11.0258
11.0264
11.0269
11.0273
11.0277
11.0279
11.0281
11.0283
11.0284
11.0286
11.0286
11.0287
11.0288
11.0288
11.0288
11.0289
11.0289
11.0289
11.0289
11.0289
11.0289
11.0289
11.029
11.029
11.029
11.029
11.029
11.029
11.029
11.029
11.029
11.029
11.029
11.029
11.029
11.029
11.029
11.029
11.029
11.029
11.029
11.029
11.029
11.029
11.029
11.029
11.029
11.029
11.029
11.029
11.029
11.029
11.029
11.029
11.029
11.029
11.029
11.029
11.029
11.029
11.029
11.029
11.029
11.029
11.029
11.029
11.2936
11.2948
11.2977
11.3007
11.3037
11.3066
11.3092
11.3116
11.3138
11.3158
11.3174
11.3189
11.3201
11.3212
11.322
11.3227
11.3233
11.3238
11.3242
11.3245
11.3248
11.325
11.3251
11.3253
11.3254
11.3255
11.3255
11.3256
11.3256
11.3257
11.3257
11.3257
11.3257
11.3258
11.3258
11.3258
11.3258
11.3258
11.3258
11.3258
11.3258
11.3258
11.3259
11.3259
11.3259
11.3259
11.3259
11.3259
11.3259
11.3259
11.3259
11.3259
11.3259
11.3259
11.3259
11.3259
11.3259
11.3259
11.3259
11.3259
11.3259
11.3259
11.3259
11.3259
11.3259
11.3259
11.3259
11.3259
11.3259
11.3259
11.3259
11.3259
11.3259
11.3259
11.3259
11.3259
11.3259
11.3259
11.3259
11.3259
11.3259
11.595
11.5958
11.5982
11.6007
11.6032
11.6055
11.6078
11.6099
11.6118
11.6135
11.615
11.6163
11.6174
11.6183
11.6191
11.6198
11.6203
11.6207
11.6211
11.6214
11.6216
11.6218
11.622
11.6221
11.6222
11.6223
11.6224
11.6224
11.6225
11.6225
11.6225
11.6226
11.6226
11.6226
11.6226
11.6226
11.6226
11.6227
11.6227
11.6227
11.6227
11.6227
11.6227
11.6227
11.6227
11.6227
11.6228
11.6228
11.6228
11.6228
11.6228
11.6228
11.6228
11.6228
11.6228
11.6228
11.6228
11.6228
11.6228
11.6228
11.6228
11.6228
11.6228
11.6228
11.6228
11.6228
11.6228
11.6228
11.6228
11.6228
11.6228
11.6228
11.6228
11.6228
11.6228
11.6228
11.6228
11.6228
11.6228
11.6228
11.6228
11.8962
11.8966
11.8986
11.9006
11.9026
11.9046
11.9065
11.9082
11.9099
11.9113
11.9127
11.9138
11.9148
11.9156
11.9163
11.9169
11.9173
11.9177
11.9181
11.9183
11.9185
11.9187
11.9189
11.919
11.9191
11.9191
11.9192
11.9193
11.9193
11.9193
11.9194
11.9194
11.9194
11.9194
11.9194
11.9195
11.9195
11.9195
11.9195
11.9195
11.9195
11.9196
11.9196
11.9196
11.9196
11.9196
11.9196
11.9196
11.9196
11.9197
11.9197
11.9197
11.9197
11.9197
11.9197
11.9197
11.9197
11.9197
11.9197
11.9197
11.9197
11.9197
11.9197
11.9197
11.9197
11.9197
11.9197
11.9197
11.9197
11.9197
11.9197
11.9197
11.9197
11.9197
11.9197
11.9197
11.9197
11.9197
11.9197
11.9197
11.9197
12.1972
12.1972
12.1988
12.2005
12.2021
12.2037
12.2052
12.2067
12.208
12.2093
12.2104
12.2114
12.2122
12.2129
12.2135
12.214
12.2144
12.2148
12.2151
12.2153
12.2155
12.2156
12.2158
12.2159
12.2159
12.216
12.2161
12.2161
12.2161
12.2162
12.2162
12.2162
12.2163
12.2163
12.2163
12.2163
12.2163
12.2164
12.2164
12.2164
12.2164
12.2164
12.2164
12.2165
12.2165
12.2165
12.2165
12.2165
12.2165
12.2165
12.2165
12.2165
12.2165
12.2166
12.2166
12.2166
12.2166
12.2166
12.2166
12.2166
12.2166
12.2166
12.2166
12.2166
12.2166
12.2166
12.2166
12.2166
12.2166
12.2166
12.2166
12.2166
12.2166
12.2166
12.2166
12.2166
12.2166
12.2166
12.2166
12.2166
12.2166
12.4979
12.4977
12.499
12.5003
12.5016
12.5028
12.5041
12.5052
12.5063
12.5073
12.5083
12.5091
12.5097
12.5103
12.5108
12.5112
12.5116
12.5119
12.5121
12.5123
12.5124
12.5126
12.5127
12.5127
12.5128
12.5129
12.5129
12.513
12.513
12.513
12.5131
12.5131
12.5131
12.5131
12.5131
12.5132
12.5132
12.5132
12.5132
12.5132
12.5133
12.5133
12.5133
12.5133
12.5133
12.5134
12.5134
12.5134
12.5134
12.5134
12.5134
12.5134
12.5134
12.5134
12.5134
12.5134
12.5134
12.5134
12.5134
12.5135
12.5135
12.5135
12.5135
12.5135
12.5135
12.5135
12.5135
12.5135
12.5135
12.5135
12.5135
12.5135
12.5135
12.5135
12.5135
12.5135
12.5135
12.5135
12.5135
12.5135
12.5135
12.7985
12.7981
12.7991
12.8001
12.8011
12.802
12.8029
12.8038
12.8046
12.8054
12.8062
12.8068
12.8073
12.8078
12.8082
12.8085
12.8088
12.809
12.8092
12.8093
12.8094
12.8095
12.8096
12.8096
12.8097
12.8097
12.8098
12.8098
12.8098
12.8099
12.8099
12.8099
12.8099
12.81
12.81
12.81
12.81
12.8101
12.8101
12.8101
12.8101
12.8102
12.8102
12.8102
12.8102
12.8102
12.8102
12.8103
12.8103
12.8103
12.8103
12.8103
12.8103
12.8103
12.8103
12.8103
12.8103
12.8103
12.8103
12.8103
12.8103
12.8103
12.8103
12.8103
12.8103
12.8103
12.8103
12.8103
12.8103
12.8103
12.8103
12.8103
12.8103
12.8103
12.8103
12.8103
12.8103
12.8103
12.8103
12.8103
12.8103
13.099
13.0984
13.0992
13.0999
13.1005
13.1012
13.1018
13.1024
13.103
13.1036
13.1041
13.1046
13.105
13.1053
13.1056
13.1058
13.106
13.1061
13.1062
13.1063
13.1064
13.1065
13.1065
13.1066
13.1066
13.1066
13.1067
13.1067
13.1067
13.1067
13.1067
13.1068
13.1068
13.1068
13.1068
13.1069
13.1069
13.1069
13.1069
13.107
13.107
13.107
13.107
13.1071
13.1071
13.1071
13.1071
13.1071
13.1072
13.1072
13.1072
13.1072
13.1072
13.1072
13.1072
13.1072
13.1072
13.1072
13.1072
13.1072
13.1072
13.1072
13.1072
13.1072
13.1072
13.1072
13.1072
13.1072
13.1072
13.1072
13.1072
13.1072
13.1072
13.1072
13.1072
13.1072
13.1072
13.1072
13.1072
13.1072
13.1072
13.3994
13.3986
13.3992
13.3996
13.4
13.4004
13.4007
13.4011
13.4014
13.4018
13.4021
13.4024
13.4026
13.4028
13.403
13.4031
13.4032
13.4033
13.4033
13.4034
13.4034
13.4034
13.4035
13.4035
13.4035
13.4035
13.4035
13.4035
13.4036
13.4036
13.4036
13.4036
13.4036
13.4037
13.4037
13.4037
13.4037
13.4038
13.4038
13.4038
13.4038
13.4039
13.4039
13.4039
13.404
13.404
13.404
13.404
13.404
13.404
13.4041
13.4041
13.4041
13.4041
13.4041
13.4041
13.4041
13.4041
13.4041
13.4041
13.4041
13.4041
13.4041
13.4041
13.4041
13.4041
13.4041
13.4041
13.4041
13.4041
13.4041
13.4041
13.4041
13.4041
13.4041
13.4041
13.4041
13.4041
13.4041
13.4041
13.4041
13.6997
13.6987
13.6991
13.6993
13.6995
13.6996
13.6996
13.6997
13.6999
13.7
13.7001
13.7002
13.7003
13.7004
13.7004
13.7004
13.7005
13.7005
13.7005
13.7004
13.7004
13.7004
13.7004
13.7004
13.7004
13.7004
13.7004
13.7004
13.7004
13.7004
13.7005
13.7005
13.7005
13.7005
13.7005
13.7006
13.7006