/*--------------------------------*- C++ -*----------------------------------*\
  =========                 |
  \\      /  F ield         | OpenFOAM: The Open Source CFD Toolbox
   \\    /   O peration     | Website:  https://openfoam.org
    \\  /    A nd           | Version:  10
     \\/     M anipulation  |
\*---------------------------------------------------------------------------*/
FoamFile
{
    format      ascii;
    class       volVectorField;
    location    "0";
    object      U;
}
// * * * * * * * * * * * * * * * * * * * * * * * * * * * * * * * * * * * * * //

dimensions      [0 1 -1 0 0 0 0];

internalField   nonuniform List<vector> 
7600
(
(1.06385 -0.827553 2.98346e-19)
(1.04954 -0.593246 3.88463e-23)
(1.03908 -0.445996 -2.54731e-19)
(1.03176 -0.347404 -1.70646e-19)
(1.02647 -0.278196 5.35117e-20)
(1.02252 -0.227756 -2.00669e-19)
(1.01947 -0.18984 0)
(1.01704 -0.16055 -1.903e-19)
(1.01508 -0.137272 0)
(1.01364 -0.117969 0)
(1.19291 -0.808477 3.07607e-19)
(1.1416 -0.579149 1.37906e-20)
(1.10833 -0.435211 -2.25245e-19)
(1.08573 -0.338925 -2.26747e-19)
(1.06971 -0.271355 2.22235e-19)
(1.05796 -0.222109 -2.05717e-19)
(1.04908 -0.185085 0)
(1.04221 -0.156503 -2.83337e-19)
(1.03683 -0.13392 1.16435e-19)
(1.03263 -0.115767 -1.95897e-19)
(1.31736 -0.769273 3.28078e-19)
(1.23049 -0.550795 0)
(1.17512 -0.413743 -2.64133e-19)
(1.13775 -0.322128 2.46844e-19)
(1.11139 -0.257861 -6.86186e-21)
(1.09211 -0.211033 -4.68283e-20)
(1.0776 -0.175838 -2.6827e-19)
(1.06641 -0.148697 7.98126e-21)
(1.05764 -0.127312 -2.09958e-19)
(1.05068 -0.110184 -9.83327e-20)
(1.43414 -0.710989 3.45705e-19)
(1.31396 -0.508836 0)
(1.23778 -0.382082 -2.72131e-19)
(1.18654 -0.297403 2.18191e-19)
(1.15047 -0.238029 -2.78233e-19)
(1.12412 -0.19478 0)
(1.10432 -0.16229 -4.95076e-19)
(1.08907 -0.137252 3.9605e-19)
(1.0771 -0.117545 7.21518e-21)
(1.06754 -0.101764 4.25155e-19)
(1.5404 -0.635103 -1.80609e-19)
(1.38992 -0.454282 1.44046e-19)
(1.29478 -0.340981 1.311e-19)
(1.2309 -0.265343 -1.34301e-19)
(1.18597 -0.212335 0)
(1.1532 -0.173739 3.53143e-20)
(1.12858 -0.144755 -1.9524e-19)
(1.10963 -0.122429 3.42652e-19)
(1.09474 -0.104863 2.21822e-19)
(1.08284 -0.0907957 2.18138e-19)
(1.63353 -0.543493 4.74468e-22)
(1.45647 -0.38845 1.62004e-19)
(1.34467 -0.291429 1.4678e-19)
(1.26971 -0.226721 -1.36585e-19)
(1.21703 -0.181401 0)
(1.17863 -0.148416 2.92108e-20)
(1.1498 -0.123654 3.0645e-20)
(1.1276 -0.104586 8.55755e-20)
(1.11016 -0.0895848 -9.77014e-20)
(1.09622 -0.0775698 -6.65207e-20)
(1.7113 -0.438404 3.82655e-19)
(1.51194 -0.312933 0)
(1.38622 -0.234626 0)
(1.302 -0.182477 1.51598e-19)
(1.24287 -0.14598 -1.23973e-19)
(1.19978 -0.119428 1.14634e-20)
(1.16743 -0.0995019 1.37618e-19)
(1.14254 -0.0841598 0)
(1.12298 -0.0720906 1.45752e-19)
(1.10733 -0.0624228 1.44407e-19)
(1.77185 -0.322383 1.95417e-19)
(1.55494 -0.229544 1.11463e-21)
(1.41835 -0.171955 0)
(1.32695 -0.133694 1.39771e-19)
(1.26282 -0.106942 -7.11891e-20)
(1.21612 -0.0874886 0)
(1.18106 -0.072892 7.11423e-20)
(1.15407 -0.0616549 -3.54737e-20)
(1.13288 -0.0528147 1.20784e-19)
(1.11592 -0.0457328 1.00045e-19)
(1.81377 -0.198205 0)
(1.58433 -0.140277 -6.77889e-22)
(1.44024 -0.104953 3.91316e-20)
(1.34393 -0.0815789 3.75586e-20)
(1.2764 -0.0652534 6.88946e-20)
(1.22723 -0.0533856 0)
(1.19033 -0.044482 -6.41097e-20)
(1.16193 -0.0376276 -6.25311e-20)
(1.13962 -0.0322345 0)
(1.12177 -0.0279132 -3.03713e-20)
(1.83617 -0.0687677 -3.53633e-34)
(1.59925 -0.0472506 -1.26697e-22)
(1.45128 -0.0352849 3.91243e-20)
(1.3525 -0.0274315 3.64202e-20)
(1.28325 -0.0219505 -6.03049e-22)
(1.23284 -0.0179659 -4.26935e-22)
(1.19501 -0.0149759 0)
(1.1659 -0.0126731 -2.80681e-35)
(1.14303 -0.0108592 -4.63007e-22)
(1.12474 -0.00940391 -3.0885e-20)
(0.176359 -0.0654408 5.8752e-22)
(0.412378 -0.0466834 2.77897e-21)
(0.559986 -0.0350513 5.4246e-21)
(0.65858 -0.0273009 6.7639e-21)
(0.727735 -0.0218759 1.47641e-20)
(0.778133 -0.0179316 1.05274e-20)
(0.816015 -0.0149754 0)
(0.845227 -0.0127036 -3.05829e-37)
(0.868245 -0.0109201 1.1752e-20)
(0.88672 -0.00949335 1.41464e-20)
(0.196972 -0.194505 0)
(0.42686 -0.138887 5.5187e-21)
(0.570847 -0.104296 -4.03406e-21)
(0.667039 -0.0812399 -1.24594e-20)
(0.734509 -0.0650987 -9.71791e-21)
(0.783678 -0.0533625 0)
(0.820636 -0.0445671 9.34941e-21)
(0.849136 -0.037809 9.22939e-21)
(0.871596 -0.0325038 0)
(0.889629 -0.0282588 2.65672e-21)
(0.237546 -0.318521 -4.18971e-20)
(0.455657 -0.227652 -5.44387e-21)
(0.592422 -0.170983 0)
(0.68382 -0.133191 -1.3891e-20)
(0.747934 -0.106729 3.74416e-20)
(0.794659 -0.0874882 0)
(0.82978 -0.0730689 -1.77622e-20)
(0.856868 -0.0619904 -7.92093e-20)
(0.878223 -0.0532953 -1.20111e-19)
(0.895379 -0.0463399 -2.75586e-20)
(0.297002 -0.434473 -1.08077e-19)
(0.498005 -0.310754 0)
(0.624163 -0.23345 0)
(0.708506 -0.181865 -7.13811e-20)
(0.76768 -0.145734 -3.08431e-21)
(0.810804 -0.11946 -4.05344e-20)
(0.843219 -0.0997714 -7.43863e-20)
(0.868224 -0.0846492 0)
(0.887947 -0.0727875 -3.01585e-20)
(0.903808 -0.0633084 -2.95608e-20)
(0.373816 -0.539539 1.39523e-21)
(0.552815 -0.386145 -6.16213e-20)
(0.66527 -0.290158 -5.66744e-20)
(0.740484 -0.226062 5.33763e-20)
(0.793258 -0.181152 0)
(0.831715 -0.148489 -7.90001e-20)
(0.860617 -0.124015 -8.28593e-20)
(0.882914 -0.105226 3.86641e-20)
(0.900512 -0.0905018 2.64587e-19)
(0.914685 -0.0787529 1.80161e-19)
(0.466038 -0.63115 8.25774e-20)
(0.618695 -0.45198 -4.07661e-20)
(0.714714 -0.339717 -3.62792e-20)
(0.778962 -0.264697 5.8843e-20)
(0.82404 -0.212111 0)
(0.856877 -0.173856 -7.64426e-20)
(0.881543 -0.145195 3.46825e-20)
(0.900564 -0.123203 -1.62198e-19)
(0.915582 -0.105991 -1.10634e-19)
(0.927702 -0.09229 -1.0918e-19)
(0.571332 -0.707063 -1.95461e-19)
(0.693987 -0.506668 0)
(0.771267 -0.380925 1.84155e-19)
(0.822993 -0.296826 -5.50817e-20)
(0.859272 -0.237848 2.09951e-19)
(0.885678 -0.194933 0)
(0.905487 -0.162777 3.30319e-19)
(0.920735 -0.138115 -1.67465e-19)
(0.932759 -0.118845 1.28637e-20)
(0.942478 -0.103562 -2.38761e-19)
(0.687018 -0.76542 -2.07724e-19)
(0.776805 -0.548918 1.83582e-20)
(0.833534 -0.412797 1.70772e-19)
(0.8715 -0.321672 -1.58228e-19)
(0.8981 -0.257736 -1.02713e-20)
(0.917425 -0.211195 6.99366e-20)
(0.931877 -0.176314 3.5825e-19)
(0.942943 -0.149562 1.6386e-19)
(0.951602 -0.128688 1.31627e-19)
(0.958558 -0.112213 1.2503e-20)
(0.810119 -0.804798 -2.43154e-19)
(0.865095 -0.577781 -1.73331e-20)
(0.899996 -0.434587 1.74771e-19)
(0.923305 -0.338639 1.85868e-19)
(0.939585 -0.271289 -1.67359e-19)
(0.951362 -0.222243 1.70628e-19)
(0.960106 -0.18546 0)
(0.966702 -0.157222 1.69403e-19)
(0.971698 -0.135175 -1.47282e-19)
(0.97546 -0.117835 1.45013e-19)
(0.9374 -0.824261 -2.67923e-19)
(0.956712 -0.592705 1.61593e-20)
(0.969058 -0.4458 2.32048e-19)
(0.977159 -0.347322 1.42762e-19)
(0.982727 -0.278185 -5.76594e-20)
(0.986683 -0.227816 1.76522e-19)
(0.989538 -0.189999 0)
(0.991564 -0.16089 1.66174e-19)
(0.992838 -0.138031 0)
(0.99313 -0.119872 0)
(0.914057 -0.00608494 -2.47602e-20)
(0.944275 -0.00326066 -2.55719e-20)
(0.961275 -0.00199002 0)
(0.971926 -0.00129678 0)
(0.979008 -0.000887174 0)
(0.983932 -0.000629987 -2.66506e-20)
(0.987477 -0.000460866 -2.67472e-20)
(0.990097 -0.000345239 0)
(0.992077 -0.000263942 1.34367e-20)
(0.993601 -0.00020485 1.3457e-20)
(0.994792 -0.000161497 0)
(0.995734 -0.000128623 0)
(0.996487 -0.000103519 0)
(0.997094 -8.37584e-05 0)
(0.997588 -6.82915e-05 0)
(0.997991 -5.58259e-05 1.35183e-20)
(0.998321 -4.59856e-05 2.70458e-20)
(0.998594 -3.79947e-05 1.35267e-20)
(0.99882 -3.16155e-05 0)
(0.999007 -2.62721e-05 0)
(0.999164 -2.19085e-05 0)
(0.999294 -1.82571e-05 6.14076e-25)
(0.999403 -1.53283e-05 0)
(0.999494 -1.28351e-05 0)
(0.99957 -1.08283e-05 0)
(0.999634 -9.07435e-06 0)
(0.999688 -7.65433e-06 0)
(0.999734 -6.42823e-06 0)
(0.999772 -5.48227e-06 1.35455e-20)
(0.999804 -4.6194e-06 -1.66124e-25)
(0.999831 -3.95769e-06 -2.70918e-20)
(0.999854 -3.33965e-06 -1.35463e-20)
(0.999873 -2.88306e-06 0)
(0.999889 -2.43876e-06 0)
(0.999903 -2.13231e-06 0)
(0.999915 -1.82308e-06 6.42316e-25)
(0.999924 -1.61508e-06 0)
(0.999933 -1.37482e-06 0)
(0.99994 -1.22595e-06 0)
(0.999946 -1.04007e-06 0)
(0.999951 -9.55224e-07 -1.35491e-20)
(0.999955 -8.32383e-07 -1.35498e-20)
(0.999959 -7.81203e-07 0)
(0.999962 -6.8187e-07 -6.77482e-21)
(0.999965 -6.50447e-07 -6.77484e-21)
(0.999967 -5.62586e-07 0)
(0.999969 -5.44564e-07 6.77505e-21)
(0.999971 -4.78135e-07 6.77506e-21)
(0.999972 -4.76409e-07 -6.44635e-25)
(0.999973 -4.17208e-07 0)
(0.999974 -4.25926e-07 6.77531e-21)
(0.999975 -3.7836e-07 6.77531e-21)
(0.999976 -3.88114e-07 6.77542e-21)
(0.999977 -3.40233e-07 6.77542e-21)
(0.999977 -3.54665e-07 0)
(0.999978 -3.12226e-07 6.77557e-21)
(0.999978 -3.26025e-07 6.77557e-21)
(0.999979 -2.83405e-07 -6.77566e-21)
(0.999979 -2.98032e-07 -6.77566e-21)
(0.999979 -2.55766e-07 -6.77574e-21)
(0.99998 -2.68829e-07 -1.01636e-20)
(0.99998 -2.25786e-07 -3.38789e-21)
(0.99998 -2.37534e-07 -6.45045e-25)
(0.99998 -1.93517e-07 0)
(0.999981 -2.03917e-07 0)
(0.999981 -1.58891e-07 0)
(0.999981 -1.68418e-07 0)
(0.999981 -1.22995e-07 3.388e-21)
(0.999982 -1.32539e-07 3.388e-21)
(0.999982 -8.73743e-08 -3.38867e-21)
(0.999982 -9.86157e-08 -3.38802e-21)
(0.999982 -5.47964e-08 1.69402e-21)
(0.999982 -6.87499e-08 -3.65888e-27)
(0.999982 -2.72898e-08 -1.69402e-21)
(0.999982 -4.52525e-08 0)
(0.999983 -6.83312e-09 0)
(0.999983 -2.9277e-08 0)
(0.999983 6.3791e-09 0)
(0.999983 -1.9474e-08 -2.11755e-22)
(0.999983 4.83434e-09 -2.11755e-22)
(0.915697 -0.0181501 -4.91602e-20)
(0.944851 -0.00975918 -5.07812e-20)
(0.961528 -0.00596746 -1.78146e-23)
(0.972048 -0.0038918 -5.23273e-20)
(0.979071 -0.00266136 -5.27173e-20)
(0.983966 -0.00188849 2.56411e-24)
(0.987495 -0.00138036 2.20799e-24)
(0.990107 -0.00103384 -5.33602e-20)
(0.992082 -0.000789797 -5.34681e-20)
(0.993604 -0.000613229 5.3567e-20)
(0.994793 -0.000482695 5.36306e-20)
(0.995734 -0.000384331 5.3698e-20)
(0.996487 -0.000308891 5.3739e-20)
(0.997094 -0.000250132 0)
(0.997588 -0.000203819 5.38211e-20)
(0.99799 -0.000166879 1.07693e-19)
(0.998321 -0.000137182 -7.14192e-24)
(0.998594 -0.00011324 -5.38923e-20)
(0.99882 -9.38658e-05 2.17913e-24)
(0.999007 -7.79893e-05 5.39336e-20)
(0.999164 -6.48423e-05 1.07891e-19)
(0.999294 -5.39814e-05 5.39566e-20)
(0.999403 -4.5058e-05 -5.39753e-20)
(0.999494 -3.76683e-05 -1.07967e-19)
(0.99957 -3.15167e-05 -5.39909e-20)
(0.999635 -2.63699e-05 -5.40096e-20)
(0.999688 -2.20431e-05 -5.40101e-20)
(0.999734 -1.84462e-05 5.4025e-20)
(0.999772 -1.54729e-05 1.08061e-19)
(0.999804 -1.29759e-05 5.40349e-20)
(0.999831 -1.08872e-05 0)
(0.999854 -9.12891e-06 0)
(0.999873 -7.6572e-06 2.7031e-20)
(0.999889 -6.41031e-06 -2.79749e-24)
(0.999903 -5.36813e-06 -2.70346e-20)
(0.999915 -4.50656e-06 6.37771e-25)
(0.999924 -3.79252e-06 0)
(0.999933 -3.17868e-06 2.70461e-20)
(0.99994 -2.66166e-06 2.70438e-20)
(0.999946 -2.21454e-06 0)
(0.999951 -1.85286e-06 0)
(0.999955 -1.55445e-06 -6.42798e-25)
(0.999959 -1.31496e-06 2.70591e-20)
(0.999962 -1.11518e-06 2.70616e-20)
(0.999965 -9.59259e-07 2.70637e-20)
(0.999967 -8.18615e-07 2.70638e-20)
(0.999969 -7.04065e-07 0)
(0.999971 -6.0468e-07 0)
(0.999972 -5.31674e-07 -6.44541e-25)
(0.999973 -4.62083e-07 2.70743e-20)
(0.999975 -4.13348e-07 5.41505e-20)
(0.999975 -3.68097e-07 -1.8403e-24)
(0.999976 -3.36125e-07 -2.70781e-20)
(0.999977 -2.95518e-07 2.49905e-24)
(0.999977 -2.66576e-07 0)
(0.999978 -2.32948e-07 -1.35425e-20)
(0.999978 -2.10872e-07 -1.35425e-20)
(0.999979 -1.827e-07 -1.3544e-20)
(0.999979 -1.66162e-07 -1.3544e-20)
(0.999979 -1.41486e-07 0)
(0.99998 -1.26383e-07 2.49963e-24)
(0.99998 -1.01923e-07 1.35467e-20)
(0.99998 -8.6529e-08 1.35435e-20)
(0.99998 -6.12541e-08 0)
(0.999981 -4.53545e-08 0)
(0.999981 -1.99058e-08 1.35489e-20)
(0.999981 -5.21967e-09 1.35489e-20)
(0.999981 1.76126e-08 0)
(0.999982 2.78139e-08 0)
(0.999982 4.51665e-08 -6.45525e-25)
(0.999982 4.84194e-08 -6.77543e-21)
(0.999982 5.89631e-08 1.48351e-25)
(0.999982 5.50242e-08 1.35488e-20)
(0.999982 5.93308e-08 6.77571e-21)
(0.999982 4.90816e-08 0)
(0.999983 4.86343e-08 2.50023e-24)
(0.999983 3.45461e-08 0)
(0.999983 3.42232e-08 0)
(0.999983 2.03057e-08 -8.47017e-22)
(0.999983 1.32573e-08 -8.47017e-22)
(0.918949 -0.0299034 9.90192e-23)
(0.946005 -0.0162185 5.25852e-23)
(0.962035 -0.00994847 1.02258e-19)
(0.972294 -0.00649668 1.03411e-19)
(0.979198 -0.00444454 1.26106e-23)
(0.984034 -0.00315404 1.0483e-19)
(0.987531 -0.0023052 2.10526e-19)
(0.990127 -0.00172637 1.05566e-19)
(0.992093 -0.0013186 1.89803e-24)
(0.993609 -0.00102379 -1.10408e-25)
(0.994796 -0.000805561 2.42246e-25)
(0.995736 -0.000641293 -2.7174e-24)
(0.996488 -0.000515247 1.06519e-19)
(0.997094 -0.000417262 1.06585e-19)
(0.997588 -0.000339953 -4.77249e-24)
(0.99799 -0.000278401 1.06809e-19)
(0.998321 -0.000228744 1.06845e-19)
(0.998594 -0.000188754 -7.66127e-24)
(0.99882 -0.000156339 -4.05799e-24)
(0.999008 -0.000129886 6.20604e-24)
(0.999164 -0.000107922 6.35598e-24)
(0.999294 -8.9804e-05 6.47967e-24)
(0.999403 -7.48686e-05 6.58165e-24)
(0.999494 -6.25634e-05 0)
(0.999571 -5.22548e-05 0)
(0.999635 -4.36978e-05 -2.35115e-24)
(0.999689 -3.64595e-05 0)
(0.999734 -3.04764e-05 0)
(0.999772 -2.54766e-05 0)
(0.999804 -2.13357e-05 -5.3759e-20)
(0.999831 -1.78201e-05 -5.37605e-20)
(0.999854 -1.49132e-05 0)
(0.999873 -1.24282e-05 0)
(0.999889 -1.03697e-05 0)
(0.999903 -8.59306e-06 0)
(0.999915 -7.17565e-06 -5.38591e-20)
(0.999925 -5.96151e-06 -1.07734e-19)
(0.999933 -4.96662e-06 1.44436e-23)
(0.99994 -4.08426e-06 5.38872e-20)
(0.999946 -3.37178e-06 -5.3918e-20)
(0.999951 -2.73748e-06 -1.0785e-19)
(0.999955 -2.25913e-06 1.32936e-23)
(0.999959 -1.83679e-06 5.39456e-20)
(0.999962 -1.53457e-06 2.49482e-24)
(0.999965 -1.25982e-06 -5.39911e-20)
(0.999967 -1.06234e-06 1.21001e-23)
(0.999969 -8.55958e-07 5.39964e-20)
(0.999971 -7.20415e-07 0)
(0.999972 -5.81559e-07 0)
(0.999974 -4.98702e-07 2.70139e-20)
(0.999975 -3.9691e-07 2.7021e-20)
(0.999975 -3.49935e-07 0)
(0.999976 -2.8013e-07 0)
(0.999977 -2.42615e-07 2.49923e-24)
(0.999977 -1.74101e-07 -7.09188e-24)
(0.999978 -1.45525e-07 0)
(0.999978 -9.1269e-08 -2.70546e-20)
(0.999979 -7.38079e-08 -5.41134e-20)
(0.999979 -2.99175e-08 -2.70659e-20)
(0.999979 -1.91824e-08 0)
(0.99998 2.05327e-08 2.70727e-20)
(0.99998 3.0259e-08 2.70702e-20)
(0.99998 6.94723e-08 -2.5003e-24)
(0.99998 7.99357e-08 -7.09362e-24)
(0.999981 1.18867e-07 0)
(0.999981 1.28481e-07 0)
(0.999981 1.63862e-07 0)
(0.999981 1.67432e-07 -7.09422e-24)
(0.999982 1.9341e-07 -1.35464e-20)
(0.999982 1.85856e-07 -2.70938e-20)
(0.999982 1.9924e-07 9.13855e-25)
(0.999982 1.79214e-07 2.70975e-20)
(0.999982 1.80759e-07 1.35467e-20)
(0.999982 1.50597e-07 0)
(0.999982 1.43516e-07 6.77553e-21)
(0.999983 1.07123e-07 6.77803e-21)
(0.999983 9.74423e-08 0)
(0.999983 6.51713e-08 -3.38802e-21)
(0.999983 5.95115e-08 -3.38802e-21)
(0.999983 2.40365e-08 0)
(0.923752 -0.0411548 -2.70837e-22)
(0.94774 -0.022617 0)
(0.9628 -0.0139347 1.54883e-24)
(0.972665 -0.00911709 1.01585e-19)
(0.979389 -0.00624314 1.02336e-19)
(0.984135 -0.00443235 -4.45251e-23)
(0.987585 -0.00323969 1.03586e-19)
(0.990155 -0.00242562 2.07802e-19)
(0.992107 -0.00185214 1.04173e-19)
(0.993616 -0.00143755 1.59838e-24)
(0.994799 -0.00113075 -1.04719e-19)
(0.995736 -0.000899729 8.29955e-23)
(0.996487 -0.000722643 -8.27638e-23)
(0.997094 -0.000584988 -1.05135e-19)
(0.997587 -0.000476454 -3.84753e-24)
(0.99799 -0.000390063 6.0412e-24)
(0.998321 -0.000320462 6.51572e-24)
(0.998594 -0.000264386 -1.05698e-19)
(0.99882 -0.000218975 -2.11517e-19)
(0.999007 -0.00018191 -1.05809e-19)
(0.999164 -0.00015118 1.05994e-19)
(0.999294 -0.000125813 1.06001e-19)
(0.999403 -0.00010493 -1.06145e-19)
(0.999495 -8.76904e-05 7.09911e-23)
(0.999571 -7.32462e-05 2.12552e-19)
(0.999635 -6.12721e-05 1.06318e-19)
(0.999689 -5.11897e-05 0)
(0.999734 -4.28084e-05 -1.06533e-19)
(0.999772 -3.58135e-05 6.61497e-23)
(0.999805 -3.00069e-05 1.06607e-19)
(0.999832 -2.50904e-05 8.53038e-24)
(0.999854 -2.10151e-05 0)
(0.999874 -1.75478e-05 1.06869e-19)
(0.99989 -1.46525e-05 -5.24111e-23)
(0.999903 -1.21785e-05 -2.13918e-19)
(0.999915 -1.01924e-05 -1.06986e-19)
(0.999925 -8.49337e-06 -5.35562e-20)
(0.999933 -7.07769e-06 -5.35567e-20)
(0.99994 -5.84766e-06 5.36132e-20)
(0.999946 -4.84998e-06 1.07254e-19)
(0.999951 -3.97127e-06 5.36411e-20)
(0.999956 -3.28654e-06 -5.36941e-20)
(0.999959 -2.69717e-06 -5.3703e-20)
(0.999963 -2.25656e-06 -8.68624e-24)
(0.999965 -1.85759e-06 -5.37765e-20)
(0.999967 -1.55676e-06 -5.37695e-20)
(0.999969 -1.26648e-06 -8.69301e-24)
(0.999971 -1.05982e-06 0)
(0.999972 -8.62241e-07 -8.69578e-24)
(0.999974 -7.33454e-07 -5.38896e-20)
(0.999975 -5.90155e-07 -5.38826e-20)
(0.999976 -5.07903e-07 0)
(0.999976 -4.08956e-07 0)
(0.999977 -3.4876e-07 -5.3953e-20)
(0.999977 -2.59849e-07 -5.39688e-20)
(0.999978 -2.14519e-07 0)
(0.999978 -1.4544e-07 0)
(0.999979 -1.16762e-07 2.70152e-20)
(0.999979 -6.21285e-08 5.40311e-20)
(0.999979 -4.32973e-08 2.70143e-20)
(0.99998 4.49091e-09 0)
(0.99998 1.96566e-08 0)
(0.99998 6.45808e-08 0)
(0.99998 7.83545e-08 -7.09361e-24)
(0.999981 1.21228e-07 -2.70624e-20)
(0.999981 1.32504e-07 -5.41389e-20)
(0.999981 1.7056e-07 4.99853e-24)
(0.999981 1.74598e-07 5.41432e-20)
(0.999982 2.02425e-07 2.70775e-20)
(0.999982 1.94495e-07 0)
(0.999982 2.0916e-07 0)
(0.999982 1.88088e-07 0)
(0.999982 1.9037e-07 0)
(0.999982 1.58553e-07 -1.35489e-20)
(0.999982 1.51808e-07 -1.35489e-20)
(0.999983 1.13376e-07 6.77538e-21)
(0.999983 1.03575e-07 6.77538e-21)
(0.999983 6.8017e-08 3.38798e-21)
(0.999983 5.87549e-08 3.38798e-21)
(0.999983 1.96434e-08 0)
(0.930012 -0.0517026 -3.42257e-22)
(0.950063 -0.0289173 -1.91893e-19)
(0.963833 -0.017928 -1.95436e-19)
(0.973167 -0.0117614 1.98257e-19)
(0.979647 -0.00806308 1.99802e-19)
(0.984271 -0.00572691 2.01496e-19)
(0.987657 -0.00418625 -2.78792e-22)
(0.990191 -0.00313372 -2.03215e-19)
(0.992125 -0.00239227 0)
(0.993625 -0.00185622 -2.04819e-19)
(0.994802 -0.00145961 -1.02409e-19)
(0.995737 -0.00116088 -1.32652e-22)
(0.996487 -0.000932089 -1.03003e-19)
(0.997093 -0.000754267 3.56545e-24)
(0.997585 -0.000614144 -1.0352e-19)
(0.997989 -0.00050266 -2.07254e-19)
(0.99832 -0.00041294 -1.03725e-19)
(0.998593 -0.000340586 0)
(0.998819 -0.000282027 0)
(0.999007 -0.000234255 0)
(0.999164 -0.000194711 7.37518e-24)
(0.999294 -0.000162023 0)
(0.999404 -0.000135142 -1.04713e-19)
(0.999495 -0.000112922 1.17136e-22)
(0.999571 -9.43076e-05 -1.15623e-22)
(0.999635 -7.89046e-05 -1.04971e-19)
(0.999689 -6.59847e-05 1.05204e-19)
(0.999735 -5.51678e-05 2.10529e-19)
(0.999773 -4.61597e-05 -1.09345e-22)
(0.999805 -3.86803e-05 -1.05437e-19)
(0.999832 -3.23619e-05 8.48111e-24)
(0.999855 -2.71095e-05 0)
(0.999874 -2.26629e-05 0)
(0.99989 -1.89225e-05 1.8115e-23)
(0.999904 -1.575e-05 8.5943e-24)
(0.999915 -1.31863e-05 8.61177e-24)
(0.999925 -1.10076e-05 0)
(0.999933 -9.16686e-06 0)
(0.999941 -7.59389e-06 0)
(0.999946 -6.31039e-06 -1.06543e-19)
(0.999952 -5.19027e-06 -2.13176e-19)
(0.999956 -4.29218e-06 -1.06642e-19)
(0.99996 -3.54053e-06 -1.06813e-19)
(0.999963 -2.95746e-06 -1.06813e-19)
(0.999965 -2.43873e-06 5.34743e-20)
(0.999968 -2.03357e-06 5.3484e-20)
(0.99997 -1.66545e-06 5.35531e-20)
(0.999971 -1.38363e-06 -4.69938e-23)
(0.999973 -1.13193e-06 -5.35984e-20)
(0.999974 -9.54939e-07 -9.66491e-24)
(0.999975 -7.74277e-07 0)
(0.999976 -6.52342e-07 0)
(0.999976 -5.28576e-07 -9.66782e-24)
(0.999977 -4.43122e-07 -5.37931e-20)
(0.999978 -3.3774e-07 -1.07634e-19)
(0.999978 -2.72191e-07 1.92488e-23)
(0.999978 -1.92254e-07 -2.78249e-23)
(0.999979 -1.49012e-07 2.67227e-23)
(0.999979 -8.73644e-08 5.39154e-20)
(0.99998 -5.72153e-08 -8.7013e-24)
(0.99998 -5.17318e-09 0)
(0.99998 1.8712e-08 -9.67157e-24)
(0.99998 6.57037e-08 2.70161e-20)
(0.999981 8.61318e-08 2.70161e-20)
(0.999981 1.29399e-07 9.67232e-24)
(0.999981 1.45659e-07 -2.7053e-20)
(0.999981 1.82779e-07 -2.70443e-20)
(0.999981 1.9053e-07 -2.70602e-20)
(0.999982 2.16391e-07 7.03423e-24)
(0.999982 2.1117e-07 -1.61101e-23)
(0.999982 2.2306e-07 -2.70737e-20)
(0.999982 2.03886e-07 0)
(0.999982 2.02683e-07 -1.35544e-20)
(0.999982 1.72106e-07 -1.35447e-20)
(0.999982 1.61432e-07 1.35484e-20)
(0.999982 1.23904e-07 1.35387e-20)
(0.999983 1.09798e-07 0)
(0.999983 7.4137e-08 -3.37824e-21)
(0.999983 5.81769e-08 -5.09161e-21)
(0.999983 1.80138e-08 -1.69402e-21)
(0.937604 -0.061369 -4.06613e-22)
(0.952973 -0.0350905 1.85124e-19)
(0.965143 -0.0219304 1.88929e-19)
(0.973805 -0.0144367 0)
(0.979973 -0.00991083 -5.75019e-23)
(0.98444 -0.00704287 0)
(0.987745 -0.00514877 1.96971e-19)
(0.990237 -0.00385355 -4.07276e-22)
(0.992148 -0.00294108 -1.98433e-19)
(0.993635 -0.00228132 1.99613e-19)
(0.994806 -0.00179325 1.99879e-19)
(0.995738 -0.00142557 0)
(0.996486 -0.00114417 -2.01451e-19)
(0.997091 -0.000925543 -2.01587e-19)
(0.997584 -0.000753353 2.02476e-19)
(0.997987 -0.000616435 4.05511e-19)
(0.998318 -0.000506387 2.03018e-19)
(0.998592 -0.000417538 0)
(0.998819 -0.000345619 -7.50012e-24)
(0.999007 -0.000286998 -2.04667e-19)
(0.999164 -0.000238577 -2.04702e-19)
(0.999295 -0.000198501 -8.50172e-24)
(0.999404 -0.00016555 1.02915e-19)
(0.999495 -0.000138297 2.06016e-19)
(0.999572 -0.000115474 2.06389e-19)
(0.999636 -9.66141e-05 2.06746e-19)
(0.99969 -8.08615e-05 1.03464e-19)
(0.999735 -6.75791e-05 9.39323e-24)
(0.999774 -5.65282e-05 0)
(0.999806 -4.737e-05 -9.53086e-24)
(0.999833 -3.96487e-05 -1.04297e-19)
(0.999855 -3.32055e-05 1.56104e-22)
(0.999874 -2.77795e-05 1.04467e-19)
(0.999891 -2.31967e-05 1.04774e-19)
(0.999904 -1.93209e-05 -1.58242e-22)
(0.999916 -1.61594e-05 1.45915e-22)
(0.999926 -1.35044e-05 2.10268e-19)
(0.999934 -1.12456e-05 2.10554e-19)
(0.999941 -9.33214e-06 1.05348e-19)
(0.999947 -7.75939e-06 -1.05622e-19)
(0.999952 -6.39985e-06 -1.05622e-19)
(0.999956 -5.28505e-06 -9.63539e-24)
(0.99996 -4.37292e-06 0)
(0.999963 -3.64364e-06 0)
(0.999966 -3.00819e-06 1.06247e-19)
(0.999968 -2.49853e-06 1.06257e-19)
(0.99997 -2.05588e-06 0)
(0.999971 -1.69753e-06 1.06592e-19)
(0.999973 -1.39449e-06 1.06612e-19)
(0.999974 -1.16778e-06 -9.66347e-24)
(0.999975 -9.52858e-07 5.34595e-20)
(0.999976 -7.88197e-07 5.34595e-20)
(0.999976 -6.41176e-07 -5.3567e-20)
(0.999977 -5.29583e-07 -5.35573e-20)
(0.999978 -4.10474e-07 5.36486e-20)
(0.999978 -3.22712e-07 1.07331e-19)
(0.999979 -2.34258e-07 1.07425e-19)
(0.999979 -1.74575e-07 5.37334e-20)
(0.999979 -1.08013e-07 0)
(0.99998 -6.47814e-08 -5.38481e-20)
(0.99998 -1.07331e-08 -5.38481e-20)
(0.99998 2.3647e-08 -9.6716e-24)
(0.99998 7.05746e-08 0)
(0.999981 9.94829e-08 0)
(0.999981 1.41105e-07 5.40146e-20)
(0.999981 1.64177e-07 5.40049e-20)
(0.999981 1.98261e-07 0)
(0.999981 2.11505e-07 0)
(0.999982 2.33208e-07 2.70495e-20)
(0.999982 2.3238e-07 2.70398e-20)
(0.999982 2.39175e-07 -2.70676e-20)
(0.999982 2.23513e-07 -2.70676e-20)
(0.999982 2.16436e-07 -9.67293e-24)
(0.999982 1.88701e-07 -1.35441e-20)
(0.999982 1.71716e-07 -2.70906e-20)
(0.999982 1.36752e-07 -1.35563e-20)
(0.999983 1.1607e-07 0)
(0.999983 8.21389e-08 9.67202e-24)
(0.999983 5.81384e-08 3.37834e-21)
(0.999983 1.8122e-08 3.38802e-21)
(0.946362 -0.0699894 -1.72252e-19)
(0.956465 -0.0411088 -1.77469e-19)
(0.966736 -0.0259443 1.67002e-22)
(0.974581 -0.0171502 1.84889e-19)
(0.980366 -0.0117936 -7.12625e-22)
(0.984643 -0.00838608 -1.8823e-19)
(0.98785 -0.0061316 0)
(0.99029 -0.00458829 0)
(0.992174 -0.00350077 1.39455e-23)
(0.993647 -0.0027144 -1.93365e-19)
(0.99481 -0.00213281 -1.93651e-19)
(0.995738 -0.00169466 -1.9497e-19)
(0.996485 -0.0013595 -1.95148e-19)
(0.997089 -0.00109925 2.3763e-24)
(0.997582 -0.000894428 0)
(0.997985 -0.000731639 -4.87614e-24)
(0.998317 -0.000600994 -5.7647e-24)
(0.998591 -0.000495425 0)
(0.998818 -0.000409895 -7.06457e-24)
(0.999007 -0.000340222 0)
(0.999164 -0.000282837 0)
(0.999295 -0.000235314 -8.25227e-24)
(0.999404 -0.000196196 0)
(0.999496 -0.000163852 -7.46839e-25)
(0.999572 -0.0001368 2.02522e-19)
(0.999637 -0.000114422 -4.66304e-22)
(0.999691 -9.58064e-05 -4.06515e-19)
(0.999736 -8.00628e-05 -2.03493e-19)
(0.999774 -6.69516e-05 1.02215e-19)
(0.999806 -5.60903e-05 1.02209e-19)
(0.999833 -4.6962e-05 0)
(0.999856 -3.93112e-05 -1.02889e-19)
(0.999875 -3.28971e-05 -2.05988e-19)
(0.999891 -2.74855e-05 -1.03108e-19)
(0.999905 -2.29067e-05 -9.69761e-24)
(0.999916 -1.91187e-05 0)
(0.999926 -1.59837e-05 8.99757e-24)
(0.999934 -1.3321e-05 -1.04134e-19)
(0.999941 -1.10693e-05 -2.08463e-19)
(0.999947 -9.19867e-06 -2.08847e-19)
(0.999952 -7.6028e-06 -1.04519e-19)
(0.999956 -6.27509e-06 0)
(0.99996 -5.20093e-06 1.05064e-19)
(0.999963 -4.31856e-06 1.05064e-19)
(0.999966 -3.56891e-06 0)
(0.999968 -2.95548e-06 -1.05572e-19)
(0.99997 -2.43984e-06 1.60827e-22)
(0.999972 -2.00645e-06 1.05733e-19)
(0.999973 -1.65382e-06 -9.0951e-24)
(0.999974 -1.37464e-06 0)
(0.999975 -1.12728e-06 0)
(0.999976 -9.19558e-07 0)
(0.999977 -7.49981e-07 1.06607e-19)
(0.999977 -6.11206e-07 1.06607e-19)
(0.999978 -4.79797e-07 0)
(0.999978 -3.69131e-07 -5.34917e-20)
(0.999979 -2.73593e-07 -1.07032e-19)
(0.999979 -1.96483e-07 -1.07155e-19)
(0.999979 -1.26072e-07 -5.36053e-20)
(0.99998 -6.88785e-08 0)
(0.99998 -1.40485e-08 0)
(0.99998 3.1661e-08 0)
(0.99998 7.73734e-08 0)
(0.999981 1.15643e-07 5.38887e-20)
(0.999981 1.54558e-07 5.38796e-20)
(0.999981 1.85357e-07 0)
(0.999981 2.15303e-07 0)
(0.999981 2.34906e-07 0)
(0.999982 2.51319e-07 -2.70288e-20)
(0.999982 2.5571e-07 -2.70288e-20)
(0.999982 2.56218e-07 0)
(0.999982 2.44858e-07 0)
(0.999982 2.30716e-07 9.10795e-24)
(0.999982 2.06617e-07 0)
(0.999982 1.82159e-07 0)
(0.999982 1.50614e-07 0)
(0.999983 1.22326e-07 6.77474e-21)
(0.999983 9.10616e-08 6.77474e-21)
(0.999983 5.8802e-08 0)
(0.999983 1.93594e-08 0)
(0.956099 -0.0774099 5.15843e-22)
(0.960527 -0.0469441 -3.09358e-22)
(0.968614 -0.0299739 1.9429e-22)
(0.975498 -0.019911 -1.76491e-19)
(0.980829 -0.0137199 -1.7827e-19)
(0.984882 -0.00976311 5.71885e-23)
(0.987974 -0.00713945 1.8247e-19)
(0.990354 -0.0053413 1.83114e-19)
(0.992206 -0.0040736 0)
(0.993661 -0.00315692 1.86165e-19)
(0.994815 -0.00247934 1.86441e-19)
(0.995739 -0.001969 -6.07711e-24)
(0.996483 -0.0015787 0)
(0.997087 -0.0012758 1.89845e-19)
(0.997579 -0.00103767 -6.99323e-22)
(0.997983 -0.0008485 -3.82213e-19)
(0.998315 -0.000696874 -1.9153e-19)
(0.99859 -0.000574347 0)
(0.998818 -0.000474995 -1.93701e-19)
(0.999007 -0.000394036 -1.93746e-19)
(0.999164 -0.000327522 0)
(0.999295 -0.000272477 5.44491e-24)
(0.999405 -0.00022711 5.75313e-24)
(0.999496 -0.000189617 7.81708e-24)
(0.999573 -0.000158331 -6.22042e-24)
(0.999638 -0.000132352 -1.98447e-19)
(0.999692 -0.000110787 6.29596e-22)
(0.999737 -9.2613e-05 1.99101e-19)
(0.999775 -7.74633e-05 6.76988e-24)
(0.999807 -6.48599e-05 -6.85551e-24)
(0.999834 -5.43032e-05 0)
(0.999857 -4.54312e-05 0)
(0.999876 -3.80139e-05 0)
(0.999892 -3.1774e-05 0)
(0.999906 -2.65034e-05 1.01914e-19)
(0.999917 -2.20869e-05 2.04103e-19)
(0.999927 -1.84584e-05 1.02205e-19)
(0.999935 -1.53878e-05 -1.02721e-19)
(0.999942 -1.27991e-05 -2.05701e-19)
(0.999948 -1.0625e-05 -1.0298e-19)
(0.999953 -8.79939e-06 0)
(0.999957 -7.26727e-06 0)
(0.99996 -6.02619e-06 0)
(0.999964 -4.98521e-06 1.04194e-19)
(0.999966 -4.12362e-06 1.04187e-19)
(0.999968 -3.40482e-06 1.04649e-19)
(0.99997 -2.81644e-06 -2.14847e-22)
(0.999972 -2.3119e-06 -1.04864e-19)
(0.999973 -1.91049e-06 1.0526e-19)
(0.999974 -1.57504e-06 2.10736e-19)
(0.999975 -1.29631e-06 1.05467e-19)
(0.999976 -1.04973e-06 -1.05843e-19)
(0.999977 -8.58118e-07 -1.05844e-19)
(0.999977 -6.8851e-07 -7.2916e-24)
(0.999978 -5.44983e-07 -7.29257e-24)
(0.999978 -4.1279e-07 -1.06523e-19)
(0.999979 -3.10825e-07 -1.06522e-19)
(0.999979 -2.15946e-07 -5.342e-20)
(0.999979 -1.4216e-07 -5.34055e-20)
(0.99998 -7.08576e-08 5.35437e-20)
(0.99998 -1.57122e-08 5.35437e-20)
(0.99998 4.13955e-08 0)
(0.99998 8.54677e-08 0)
(0.999981 1.3323e-07 0)
(0.999981 1.69042e-07 -5.38487e-20)
(0.999981 2.07752e-07 -5.38469e-20)
(0.999981 2.33184e-07 -7.29787e-24)
(0.999981 2.59287e-07 5.39731e-20)
(0.999982 2.7003e-07 2.69676e-20)
(0.999982 2.79789e-07 -2.70128e-20)
(0.999982 2.73622e-07 0)
(0.999982 2.66712e-07 2.7045e-20)
(0.999982 2.45152e-07 -1.0481e-23)
(0.999982 2.24853e-07 1.79327e-23)
(0.999982 1.92619e-07 2.70753e-20)
(0.999982 1.64726e-07 0)
(0.999982 1.28652e-07 1.35486e-20)
(0.999983 1.00216e-07 1.35486e-20)
(0.999983 6.02857e-08 -7.29671e-24)
(0.999983 2.1305e-08 0)
(0.966885 -0.0835192 0)
(0.965503 -0.0525557 -1.59288e-19)
(0.971043 -0.0340133 -1.62687e-19)
(0.976739 -0.0227221 1.67029e-19)
(0.981486 -0.0156939 1.68765e-19)
(0.985242 -0.0111776 -1.71854e-19)
(0.988176 -0.00817494 9.20566e-22)
(0.99047 -0.00611432 1.74335e-19)
(0.992273 -0.00466081 0)
(0.9937 -0.00360968 -1.77943e-19)
(0.994837 -0.0028333 9.05401e-22)
(0.995751 -0.00224893 1.79391e-19)
(0.996491 -0.00180218 0)
(0.997092 -0.00145552 1.82426e-19)
(0.997583 -0.00118323 -8.87177e-22)
(0.997985 -0.000967086 -1.83533e-19)
(0.998317 -0.000793976 1.90396e-24)
(0.998591 -0.000654246 1.86305e-19)
(0.998818 -0.000541012 1.8636e-19)
(0.999008 -0.00044858 0)
(0.999166 -0.000372638 0)
(0.999296 -0.000309923 5.19118e-24)
(0.999406 -0.000258317 -1.90737e-19)
(0.999498 -0.000215634 8.25207e-22)
(0.999575 -0.00018005 1.91602e-19)
(0.999639 -0.000150423 -1.93248e-19)
(0.999693 -0.000125816 -1.93255e-19)
(0.999738 -0.000105193 0)
(0.999776 -8.80565e-05 1.95656e-19)
(0.999808 -7.37018e-05 1.9565e-19)
(0.999835 -6.16775e-05 0)
(0.999858 -5.15716e-05 1.97947e-19)
(0.999877 -4.31409e-05 1.97951e-19)
(0.999893 -3.60411e-05 0)
(0.999906 -3.00831e-05 0)
(0.999918 -2.50842e-05 0)
(0.999927 -2.09575e-05 7.15389e-24)
(0.999936 -1.74433e-05 0)
(0.999942 -1.45115e-05 1.01442e-19)
(0.999948 -1.20376e-05 1.01443e-19)
(0.999953 -9.98558e-06 -2.11558e-24)
(0.999957 -8.25474e-06 0)
(0.999961 -6.84739e-06 -1.02711e-19)
(0.999964 -5.65213e-06 2.98907e-22)
(0.999967 -4.67921e-06 1.03001e-19)
(0.999969 -3.84848e-06 5.13372e-24)
(0.99997 -3.18385e-06 0)
(0.999972 -2.60985e-06 1.04123e-19)
(0.999973 -2.16157e-06 1.04132e-19)
(0.999974 -1.77014e-06 0)
(0.999975 -1.46056e-06 1.04893e-19)
(0.999976 -1.1804e-06 1.04895e-19)
(0.999977 -9.67581e-07 -1.05366e-19)
(0.999977 -7.62337e-07 -1.05371e-19)
(0.999978 -6.05352e-07 -9.43958e-24)
(0.999978 -4.54088e-07 1.06007e-19)
(0.999979 -3.45918e-07 1.06e-19)
(0.999979 -2.33543e-07 -9.44337e-24)