/*--------------------------------*- C++ -*----------------------------------*\
| =========                 |                                                 |
| \\      /  F ield         | OpenFOAM: The Open Source CFD Toolbox           |
|  \\    /   O peration     | Version:  2406                                  |
|   \\  /    A nd           | Website:  www.openfoam.com                      |
|    \\/     M anipulation  |                                                 |
\*---------------------------------------------------------------------------*/
FoamFile
{
    version     2.0;
    format      ascii;
    arch        "LSB;label=32;scalar=64";
    class       volScalarField;
    location    "10";
    object      k;
}
// * * * * * * * * * * * * * * * * * * * * * * * * * * * * * * * * * * * * * //

dimensions      [0 2 -2 0 0 0 0];

internalField   nonuniform List<scalar> 
38016
(
0.0262798
0.0277944
0.0307216
0.0338802
0.0372365
0.0407578
0.0444006
0.0481119
0.0518328
0.0555022
0.0590604
0.0624541
0.065638
0.068578
0.071251
0.073645
0.0757563
0.0775899
0.0791549
0.0804628
0.0815254
0.0823554
0.0829635
0.0833606
0.0835637
0.0837076
0.0838719
0.0840331
0.0841886
0.0843335
0.0844676
0.0845955
0.0847182
0.08484
0.0849605
0.0850809
0.0852012
0.0853216
0.0854436
0.085569
0.0857066
0.0858638
0.0860728
0.0862453
0.0867061
0.0873436
0.0883492
0.0903611
0.0261844
0.0276544
0.030557
0.0336904
0.0370211
0.0405169
0.0441349
0.0478228
0.051522
0.0551717
0.0587123
0.0620902
0.06526
0.0681869
0.0708473
0.0732286
0.0753262
0.0771443
0.0786911
0.0799771
0.0810126
0.081809
0.0823756
0.0827208
0.0828602
0.0829454
0.0830623
0.0831868
0.0833137
0.0834364
0.0835537
0.0836689
0.0837815
0.0838947
0.0840072
0.0841189
0.0842291
0.0843371
0.0844438
0.0845517
0.0846709
0.0848107
0.0850034
0.0851664
0.0855915
0.086212
0.0873073
0.0894777
0.0260794
0.0275028
0.03038
0.0334873
0.0367915
0.0402609
0.0438532
0.0475167
0.0511933
0.0548224
0.0583445
0.0617059
0.0648609
0.0677742
0.0704218
0.0727903
0.0748744
0.0766775
0.0782068
0.0794718
0.0804818
0.0812463
0.0817737
0.0820701
0.0821493
0.0821787
0.0822508
0.0823415
0.0824419
0.0825444
0.0826466
0.0827502
0.0828536
0.0829584
0.083063
0.0831663
0.0832669
0.0833641
0.083459
0.0835551
0.0836643
0.0837978
0.0839861
0.0841513
0.0845559
0.0851623
0.0863233
0.0886187
0.0259652
0.0273403
0.0301913
0.0332718
0.0365487
0.0399908
0.0435566
0.0471948
0.0508479
0.0544555
0.0579582
0.0613023
0.0644418
0.0673411
0.0699756
0.0723312
0.0744021
0.0761908
0.0777037
0.0789492
0.0799353
0.0806703
0.0811611
0.0814118
0.0814345
0.0814117
0.0814421
0.0815019
0.0815783
0.0816626
0.0817512
0.0818441
0.0819385
0.0820349
0.0821313
0.0822255
0.0823163
0.0824028
0.082487
0.0825734
0.0826762
0.0828082
0.082998
0.0831723
0.0835625
0.0841443
0.0853229
0.087699
0.0258423
0.0271672
0.0299913
0.0330443
0.036293
0.0397071
0.0432454
0.0468574
0.0504859
0.054071
0.0575533
0.0608792
0.0640024
0.0668871
0.069508
0.0718506
0.0739086
0.0756834
0.0771808
0.0784081
0.0793723
0.0800801
0.0805368
0.080745
0.080715
0.0806436
0.0806352
0.0806661
0.0807204
0.0807878
0.0808635
0.080946
0.0810315
0.0811193
0.081207
0.081292
0.0813728
0.0814491
0.0815236
0.0816019
0.0817008
0.0818338
0.0820244
0.0822066
0.082582
0.0831242
0.0842809
0.0867108
0.0257111
0.0269838
0.0297802
0.032805
0.0360247
0.0394097
0.0429195
0.0465042
0.050107
0.0536684
0.0571292
0.0604358
0.0635418
0.066411
0.0690178
0.0713472
0.0733921
0.0751534
0.0766361
0.0778464
0.07879
0.0794725
0.0798974
0.0800657
0.0799858
0.0798687
0.0798238
0.0798276
0.0798611
0.0799126
0.0799761
0.0800486
0.0801253
0.0802046
0.0802835
0.0803594
0.0804309
0.0804979
0.0805644
0.0806371
0.0807344
0.0808676
0.0810569
0.0812462
0.0816067
0.0821017
0.0832231
0.0857181
0.025572
0.0267906
0.0295586
0.0325542
0.035744
0.039099
0.0425793
0.0461354
0.0497114
0.0532478
0.0566859
0.059972
0.0630597
0.0659125
0.0685046
0.0708202
0.0728521
0.0746002
0.0760686
0.0772629
0.0781874
0.0788464
0.0792415
0.0793724
0.0792452
0.0790849
0.0790056
0.0789837
0.0789975
0.0790339
0.0790858
0.0791487
0.0792168
0.0792876
0.0793577
0.0794248
0.0794875
0.0795464
0.0796066
0.0796758
0.0797733
0.0799062
0.0800954
0.0802942
0.080642
0.0810918
0.0821758
0.0847515
0.0254255
0.0265881
0.0293268
0.0322925
0.0354516
0.0387755
0.0422252
0.0457517
0.0492994
0.0528096
0.0562236
0.059488
0.0625562
0.0653917
0.0679683
0.0702698
0.0722885
0.0740235
0.0754785
0.0766578
0.0775647
0.078202
0.0785694
0.0786653
0.0784937
0.0782927
0.078181
0.0781348
0.0781301
0.0781523
0.0781932
0.078247
0.0783066
0.078369
0.0784305
0.0784891
0.0785438
0.0785959
0.0786517
0.0787194
0.0788179
0.0789518
0.0791441
0.0793554
0.0796951
0.0801054
0.081155
0.0838255
0.025272
0.0263767
0.0290855
0.0320205
0.035148
0.03844
0.041858
0.0453536
0.0488719
0.0523544
0.0557431
0.0589844
0.062032
0.0648491
0.0674094
0.0696963
0.0717017
0.0734241
0.0748663
0.0760317
0.0769225
0.0775401
0.0778823
0.0779459
0.0777328
0.0774938
0.0773518
0.0772829
0.0772608
0.0772697
0.0773004
0.0773455
0.077397
0.0774512
0.0775045
0.0775554
0.0776032
0.0776501
0.0777035
0.0777714
0.0778709
0.078008
0.0782069
0.0784338
0.0787706
0.0791486
0.0801681
0.0829422
0.0251121
0.0261569
0.0288352
0.0317389
0.034834
0.0380932
0.0414783
0.0449419
0.0484294
0.051883
0.0552448
0.0584617
0.0614875
0.0642852
0.0668284
0.0691003
0.0710923
0.0728022
0.0742324
0.0753853
0.0762617
0.0768618
0.0771812
0.0772153
0.0769638
0.0766897
0.0765197
0.0764295
0.0763913
0.0763879
0.0764091
0.0764461
0.0764899
0.0765364
0.076582
0.076626
0.0766682
0.0767116
0.0767645
0.0768333
0.0769348
0.0770777
0.0772866
0.0775329
0.0778709
0.0782251
0.0792163
0.082099
0.0249464
0.0259294
0.0285766
0.0314483
0.0345103
0.0377357
0.041087
0.0445173
0.0479727
0.051396
0.0547296
0.0579208
0.0609234
0.0637007
0.0662261
0.0684824
0.0704609
0.0721589
0.0735778
0.0747194
0.0755833
0.0761681
0.0764674
0.0764751
0.0761885
0.0758823
0.0756865
0.0755768
0.0755238
0.0755091
0.0755217
0.0755513
0.0755881
0.0756275
0.0756662
0.0757044
0.0757424
0.0757841
0.0758378
0.0759074
0.0760124
0.0761638
0.0763864
0.0766554
0.0769994
0.0773361
0.0782989
0.0812934
0.0247752
0.0256946
0.0283102
0.0311494
0.0341775
0.0373682
0.0406847
0.0440805
0.0475027
0.0508941
0.0541981
0.0573622
0.0603404
0.0630962
0.0656029
0.0678433
0.0698082
0.0714946
0.0729033
0.074035
0.0748882
0.0754601
0.0757421
0.0757265
0.0754085
0.0750731
0.074854
0.0747265
0.0746599
0.0746351
0.07464
0.0746632
0.0746936
0.0747266
0.0747594
0.0747931
0.0748285
0.0748699
0.0749248
0.0749961
0.0751066
0.075269
0.0755096
0.0758039
0.0761593
0.0764817
0.0774178
0.0805232
0.024599
0.0254531
0.0280366
0.0308427
0.0338363
0.0369916
0.0402722
0.0436325
0.04702
0.0503783
0.0536513
0.0567868
0.0597395
0.0624727
0.06496
0.067184
0.0691354
0.0708106
0.07221
0.0733333
0.0741777
0.0747393
0.075007
0.0749715
0.0746255
0.0742644
0.0740243
0.0738808
0.0738021
0.0737683
0.0737667
0.0737844
0.0738094
0.073837
0.0738651
0.0738956
0.0739299
0.0739717
0.0740279
0.0741021
0.0742202
0.0743963
0.0746586
0.0749822
0.0753521
0.0756646
0.0765722
0.0797861
0.0244185
0.0252054
0.0277564
0.030529
0.0334874
0.0366065
0.0398503
0.0431739
0.0465255
0.0498494
0.0530899
0.0561956
0.0591214
0.061831
0.0642982
0.0665054
0.0684433
0.0701079
0.0714989
0.0726153
0.0734532
0.0740069
0.0742634
0.0742114
0.0738414
0.0734577
0.0731993
0.0730415
0.0729522
0.0729106
0.0729039
0.0729172
0.0729378
0.0729612
0.0729857
0.0730142
0.0730481
0.0730908
0.0731497
0.0732284
0.0733558
0.073549
0.0738361
0.0741939
0.0745804
0.0748867
0.075763
0.0790834
0.0242341
0.0249521
0.0274702
0.0302088
0.0331316
0.0362136
0.0394198
0.0427057
0.0460201
0.0493083
0.0525151
0.0555896
0.0584873
0.0611724
0.0636186
0.0658088
0.0677332
0.0693878
0.0707715
0.0718826
0.072716
0.0732647
0.0735131
0.0734483
0.073058
0.0726553
0.0723811
0.072211
0.0721126
0.0720646
0.0720538
0.0720636
0.0720808
0.072101
0.0721231
0.0721507
0.0721854
0.0722303
0.0722929
0.0723778
0.0725165
0.0727298
0.0730459
0.0734417
0.0738485
0.0741487
0.0749917
0.078419
0.0240462
0.0246935
0.0271785
0.0298828
0.0327694
0.0358139
0.0389815
0.0422287
0.0455048
0.0487559
0.0519277
0.0549698
0.0578383
0.0604979
0.0629226
0.0650953
0.0670065
0.0686515
0.0700291
0.0711367
0.0719678
0.0725141
0.0727577
0.0726837
0.0722774
0.0718591
0.0715717
0.0713913
0.0712852
0.0712321
0.0712181
0.0712254
0.0712403
0.0712585
0.0712793
0.0713074
0.0713442
0.0713925
0.0714602
0.0715528
0.0717055
0.0719414
0.072292
0.0727291
0.0731601
0.0734528
0.0742651
0.0777991
0.0238554
0.0244303
0.0268819
0.0295516
0.0324017
0.0354079
0.0385362
0.0417437
0.0449805
0.0481934
0.0513289
0.0543374
0.0571757
0.0598089
0.0622116
0.0643666
0.0662647
0.0679009
0.0692734
0.070379
0.0712102
0.0717569
0.0719991
0.0719197
0.0715014
0.0710712
0.0707733
0.0705845
0.0704724
0.0704156
0.0703993
0.0704052
0.0704189
0.0704363
0.0704572
0.070487
0.0705272
0.0705803
0.0706544
0.0707568
0.0709253
0.071188
0.0715768
0.0720614
0.072517
0.0728043
0.0735837
0.0772259
0.0236622
0.0241629
0.026581
0.0292159
0.032029
0.0349964
0.0380848
0.0412517
0.0444481
0.0476217
0.0507198
0.0536936
0.0565007
0.0591068
0.0614869
0.0636241
0.0655093
0.0671373
0.068506
0.0696115
0.0704449
0.0709949
0.0712391
0.0711581
0.0707322
0.0702935
0.0699878
0.0697928
0.0696763
0.0696167
0.0695992
0.0696049
0.0696186
0.0696364
0.0696587
0.0696918
0.0697368
0.0697959
0.0698782
0.0699922
0.0701791
0.0704725
0.0709047
0.0714418
0.0719237
0.0722046
0.0729512
0.0767047
0.0234669
0.0238919
0.0262762
0.0288763
0.031652
0.0345803
0.037628
0.0407535
0.0439087
0.047042
0.0501017
0.0530399
0.0558149
0.0583932
0.0607502
0.0628696
0.0647422
0.0663628
0.0677289
0.0688359
0.0696739
0.07023
0.0704795
0.0704009
0.0699716
0.0695282
0.0692175
0.0690183
0.068899
0.0688381
0.0688204
0.068827
0.068842
0.0688617
0.0688868
0.0689244
0.0689757
0.0690422
0.0691343
0.0692618
0.0694702
0.0697984
0.0702795
0.0708747
0.0713843
0.0716571
0.0723701
0.0762398
0.0232701
0.0236176
0.0259683
0.0285332
0.0312715
0.0341602
0.0371667
0.0402502
0.0433633
0.0464554
0.0494758
0.0523775
0.0551197
0.0576696
0.0600033
0.0621048
0.0639651
0.0655792
0.0669439
0.0680541
0.0688989
0.0694639
0.0697223
0.0696499
0.0692217
0.0687773
0.0684643
0.0682631
0.0681427
0.0680815
0.0680648
0.0680735
0.0680912
0.0681142
0.0681434
0.0681871
0.0682459
0.0683216
0.0684251
0.068569
0.0688008
0.0691696
0.0697044
0.0703648
0.0709026
0.0711657
0.0718422
0.0758342
0.0230722
0.0233406
0.0256575
0.0281874
0.0308881
0.0337368
0.0367018
0.0397427
0.042813
0.0458632
0.0488435
0.051708
0.0544167
0.0569378
0.059248
0.0613317
0.0631802
0.0647884
0.066153
0.0672682
0.0681221
0.0686989
0.0689695
0.0689073
0.0684845
0.0680427
0.0677303
0.0675293
0.0674095
0.0673494
0.0673349
0.0673468
0.0673688
0.0673964
0.0674312
0.0674823
0.0675501
0.0676363
0.0677534
0.0679157
0.068175
0.0685885
0.0691847
0.0699147
0.0704846
0.0707315
0.0713684
0.0754898
0.0228736
0.0230612
0.0253445
0.0278394
0.0305023
0.0333109
0.036234
0.0392318
0.0422588
0.0452665
0.0482061
0.0510327
0.0537076
0.0561996
0.0584862
0.0605522
0.0623894
0.0639926
0.0653583
0.0664801
0.0673454
0.0679366
0.0682228
0.0681747
0.0677618
0.0673264
0.0670173
0.0668187
0.0667014
0.0666437
0.0666324
0.0666489
0.0666765
0.0667103
0.0667521
0.0668121
0.0668903
0.0669888
0.0671215
0.0673048
0.0675955
0.068059
0.068724
0.06953
0.0701349
0.0703587
0.0709568
0.0752138
0.0226747
0.02278
0.0250297
0.0274897
0.0301149
0.0328833
0.0357641
0.0387186
0.0417019
0.0446665
0.047565
0.0503535
0.0529942
0.0554569
0.0577198
0.0597685
0.0615949
0.063194
0.064562
0.0656921
0.0665708
0.0671792
0.0674844
0.0674542
0.0670557
0.0666303
0.0663274
0.0661334
0.0660204
0.0659666
0.0659597
0.0659821
0.0660168
0.0660583
0.0661085
0.0661787
0.0662687
0.0663814
0.0665318
0.0667393
0.067065
0.0675847
0.0683259
0.0692152
0.0698562
0.070052
0.0706028
0.0750033
0.0224759
0.0224972
0.0247136
0.0271388
0.0297263
0.0324545
0.0352931
0.0382039
0.0411433
0.0440646
0.0469216
0.0496717
0.052278
0.0547114
0.0569509
0.0589826
0.0607988
0.0623946
0.0637662
0.0649063
0.0658004
0.0664286
0.0667559
0.0667476
0.0663677
0.0659561
0.0656622
0.0654751
0.0653683
0.06532
0.0653186
0.0653482
0.0653915
0.0654421
0.0655022
0.065584
0.0656874
0.0658161
0.0659871
0.0662212
0.0665872
0.0671685
0.067995
0.0689738
0.0696545
0.0698118
0.0703179
0.0748695
0.0222777
0.0222133
0.0243965
0.0267873
0.0293373
0.0320254
0.0348216
0.0376888
0.0405841
0.043462
0.0462775
0.048989
0.0515611
0.0539653
0.0561817
0.0581968
0.0600034
0.0615969
0.0629732
0.0641247
0.0650364
0.0656868
0.0660394
0.0660567
0.0656999
0.0653057
0.0650236
0.0648457
0.0647471
0.0647062
0.0647113
0.0647493
0.0648027
0.0648639
0.0649354
0.0650302
0.0651484
0.0652954
0.065489
0.0657538
0.066164
0.0668152
0.0677332
0.068813
0.0695297
0.0696471
0.070097
0.074806
0.0220803
0.0219287
0.024079
0.0264355
0.0289484
0.0315964
0.0343505
0.0371741
0.0400253
0.0428599
0.0456339
0.0483071
0.0508451
0.0532205
0.0554141
0.0574132
0.0592109
0.060803
0.0621851
0.0633496
0.0642807
0.0649556
0.0653366
0.065383
0.0650536
0.0646805
0.064413
0.0642465
0.0641582
0.0641266
0.0641394
0.0641869
0.0642519
0.0643253
0.0644098
0.0645191
0.0646538
0.0648211
0.0650402
0.0653395
0.0657987
0.0665277
0.0675453
0.0687354
0.0694873
0.0695594
0.0699453
0.0748159
0.0218842
0.0216437
0.0237614
0.0260841
0.02856
0.0311684
0.0338805
0.0366607
0.0394681
0.0422596
0.0449924
0.0476276
0.0501319
0.0524789
0.0546503
0.056634
0.0584237
0.0600153
0.0614044
0.0625831
0.0635353
0.0642372
0.0646493
0.0647285
0.0644307
0.0640822
0.0638321
0.0636794
0.0636033
0.0635828
0.0636049
0.0636633
0.0637412
0.0638284
0.0639275
0.0640526
0.0642057
0.0643954
0.064643
0.0649805
0.0654941
0.0663086
0.0674339
0.0687426
0.0695274
0.0695525
0.0698697
0.0749025
0.0216896
0.0213586
0.023444
0.0257333
0.0281727
0.0307417
0.0334123
0.0361495
0.0389135
0.0416623
0.0443544
0.0469521
0.0494232
0.0517425
0.0538923
0.0558614
0.0576438
0.0592358
0.060633
0.0618274
0.0628023
0.0635331
0.0639791
0.0640945
0.0638325
0.0635121
0.0632821
0.0631454
0.0630836
0.063076
0.0631093
0.0631797
0.063272
0.0633747
0.06349
0.0636328
0.0638057
0.0640208
0.0642991
0.06468
0.0652524
0.0661614
0.0674017
0.0688366
0.069651
0.0696298
0.0698809
0.0750728
0.0214969
0.0210738
0.0231272
0.0253837
0.027787
0.0303172
0.0329467
0.0356414
0.0383625
0.0410692
0.0437213
0.0462822
0.0487209
0.0510132
0.0531423
0.0550977
0.0568737
0.0584669
0.0598732
0.0610844
0.0620836
0.0628453
0.0633277
0.0634826
0.0632604
0.0629715
0.0627644
0.062646
0.0626005
0.062608
0.0626547
0.0627381
0.0628461
0.062966
0.0630992
0.0632612
0.0634563
0.0636986
0.0640116
0.0644391
0.0650775
0.0660868
0.0674528
0.0690157
0.0698594
0.0697903
0.0699722
0.0753252
0.0213064
0.0207894
0.0228114
0.0250355
0.0274033
0.0298952
0.0324842
0.0351371
0.0378161
0.0404815
0.0430944
0.0456194
0.0480266
0.0502929
0.0524023
0.0543447
0.0561152
0.0577107
0.0591271
0.0603562
0.0613811
0.0621754
0.0626965
0.0628941
0.0627156
0.0624616
0.0622801
0.0621823
0.0621549
0.0621796
0.0622422
0.0623395
0.0624646
0.0626034
0.0627565
0.0629397
0.0631589
0.0634313
0.0637823
0.0642609
0.0649712
0.0660887
0.0675885
0.0692843
0.0701597
0.0700289
0.0701691
0.0756956
0.0211184
0.0205058
0.0224967
0.024689
0.027022
0.0294763
0.0320256
0.0346374
0.0372752
0.0399003
0.042475
0.0449652
0.0473421
0.0495835
0.0516741
0.0536047
0.0553707
0.0569693
0.0583967
0.0596448
0.0606965
0.0615251
0.0620872
0.0623304
0.0621993
0.0619835
0.0618303
0.0617553
0.0617481
0.0617922
0.0618728
0.0619857
0.0621291
0.0622887
0.0624635
0.06267
0.0629158
0.0632211
0.0636137
0.0641481
0.0649369
0.0661701
0.0678139
0.0696486
0.0705528
0.0703549
0.0704318
0.0761482
0.0209331
0.0202233
0.0221836
0.0243447
0.0266435
0.0290609
0.0315713
0.0341431
0.0367406
0.0393265
0.0418643
0.0443209
0.0466688
0.0488865
0.0509596
0.0528795
0.0546419
0.0562446
0.0576839
0.0589519
0.0600316
0.060896
0.061501
0.0617925
0.0617126
0.0615381
0.0614158
0.0613658
0.0613807
0.0614459
0.0615469
0.0616778
0.0618407
0.0620227
0.0622217
0.0624538
0.062729
0.0630702
0.0635089
0.064104
0.0649792
0.0663361
0.0681349
0.0701157
0.0710549
0.0707622
0.0707891
0.0767297
0.0207508
0.0199419
0.0218721
0.0240028
0.0262681
0.0286495
0.031122
0.0336548
0.0362132
0.0387613
0.0412635
0.043688
0.0460082
0.0482037
0.0502606
0.052171
0.0539309
0.0555386
0.0569907
0.0582794
0.0593881
0.0602895
0.0609393
0.0612817
0.0612563
0.0611263
0.0610375
0.0610147
0.0610536
0.0611419
0.0612654
0.061417
0.0616006
0.0618069
0.0620322
0.0622928
0.0626003
0.0629811
0.0634706
0.0641327
0.0651026
0.0665929
0.068558
0.0706967
0.0716696
0.0712625
0.07121
0.0774134
0.0205718
0.019662
0.0215625
0.0236636
0.0258962
0.0282425
0.0306781
0.033173
0.0356938
0.0382054
0.0406736
0.0430676
0.0453618
0.0475366
0.0495787
0.0514808
0.0532393
0.054853
0.0563186
0.0576289
0.0587674
0.059707
0.0604032
0.0607989
0.0608313
0.0607487
0.0606959
0.0607024
0.0607673
0.0608804
0.0610289
0.0612045
0.0614097
0.061642
0.0618963
0.0621882
0.0625317
0.0629563
0.0635021
0.0642382
0.0653121
0.0669461
0.0690906
0.0713995
0.0724083
0.0718593
0.0716975
0.0782081
0.0203962
0.0193837
0.0212551
0.0233272
0.025528
0.0278402
0.03024
0.0326984
0.035183
0.0376598
0.0400957
0.0424609
0.0447308
0.0468865
0.0489154
0.0508106
0.0525689
0.0541895
0.0556695
0.057002
0.0581711
0.0591498
0.0598938
0.060345
0.0604384
0.060406
0.0603917
0.0604297
0.0605224
0.0606621
0.0608375
0.0610397
0.0612691
0.061529
0.0618149
0.0621414
0.0625249
0.0629978
0.0636058
0.064424
0.0656121
0.0674005
0.0697371
0.0722294
0.073274
0.0725574
0.0722548
0.0791068
0.0202244
0.0191072
0.0209499
0.0229938
0.0251638
0.0274429
0.0298081
0.0322315
0.0346814
0.037125
0.0395305
0.0418689
0.0441163
0.0462547
0.048272
0.0501617
0.0519211
0.0535496
0.0550447
0.0564001
0.0576004
0.0586191
0.0594121
0.0599208
0.060078
0.0600986
0.0601252
0.0601966
0.0603189
0.0604869
0.0606911
0.0609224
0.0611793
0.0614685
0.0617886
0.0621534
0.0625808
0.0631072
0.0637837
0.0646928
0.0660055
0.0679599
0.0705012
0.0731903
0.0742729
0.0733642
0.072884
0.0800857
0.0200564
0.0188326
0.0206471
0.0226636
0.0248037
0.0270508
0.0293828
0.0317725
0.0341895
0.0366019
0.0389788
0.0412923
0.0435193
0.0456423
0.0476497
0.0495355
0.0512972
0.0529346
0.0544457
0.0558246
0.0570567
0.0581161
0.0589592
0.059527
0.0597508
0.059827
0.0598967
0.0600037
0.0601574
0.0603553
0.06059
0.0608531
0.0611413
0.061461
0.0618181
0.0622244
0.0627003
0.0632855
0.064037
0.0650459
0.0664946
0.068625
0.0713841
0.0742797
0.0754023
0.074283
0.0735633
0.0810947
0.0198925
0.01856
0.0203468
0.0223368
0.0244479
0.0266642
0.0289643
0.0313219
0.0337077
0.0360908
0.0384412
0.040732
0.0429407
0.0450503
0.0470497
0.0489331
0.0506984
0.0523458
0.0538736
0.0552765
0.0565409
0.0576415
0.0585356
0.0591641
0.0594569
0.0595912
0.0597064
0.0598508
0.0600375
0.0602669
0.0605337
0.060831
0.0611537
0.061507
0.0619032
0.0623549
0.0628839
0.063533
0.0643666
0.0654849
0.0670806
0.0693982
0.0723856
0.0754978
0.07667
0.0753122
0.074336
0.0821674
0.0197329
0.0182896
0.0200492
0.0220135
0.0240965
0.0262831
0.0285528
0.03088
0.0332363
0.0355921
0.0379182
0.0401885
0.042381
0.0444794
0.0464726
0.0483555
0.0501258
0.0517842
0.0533295
0.0547571
0.0560542
0.0571965
0.0581422
0.0588328
0.0591969
0.0593916
0.0595544
0.0597382
0.0599595
0.0602219
0.0605223
0.0608556
0.0612158
0.0616065
0.0620444
0.0625447
0.0631313
0.0638503
0.0647727
0.0660104
0.0677644
0.0702803
0.0735043
0.0768407
0.0780592
0.076465
0.0751671
0.083225
0.0195777
0.0180214
0.0197542
0.0216936
0.0237496
0.0259078
0.0281483
0.0304468
0.0327757
0.0351062
0.0374102
0.0396622
0.0418409
0.0439301
0.0459193
0.0478032
0.0495801
0.0512506
0.0528143
0.0542671
0.0555972
0.0567815
0.0577795
0.0585334
0.0589707
0.0592279
0.0594405
0.0596654
0.0599228
0.0602196
0.0605551
0.060926
0.0613271
0.0617598
0.062241
0.0627936
0.0634426
0.0642371
0.0652554
0.0666234
0.068547
0.0712731
0.0747397
0.0783074
0.0795778
0.0777359
0.0761178
0.0843375
0.0194271
0.0177556
0.0194619
0.0213773
0.0234072
0.0255382
0.0277511
0.0300225
0.0323258
0.0346333
0.0369174
0.0391535
0.0413206
0.043403
0.0453902
0.047277
0.0490619
0.0507459
0.0523288
0.0538073
0.0551708
0.0563975
0.0574482
0.0582661
0.0587786
0.0591004
0.0593646
0.0596323
0.0599274
0.0602598
0.0606317
0.0610419
0.0614863
0.0619646
0.0624928
0.0631011
0.063817
0.0646931
0.0658149
0.067324
0.0694294
0.0723775
0.0760926
0.0798997
0.0812166
0.0791407
0.0771501
0.0854443
0.0192812
0.0174922
0.0191724
0.0210645
0.0230694
0.0251744
0.0273611
0.0296071
0.0318868
0.0341733
0.0364399
0.0386624
0.0408204
0.0428982
0.0448855
0.0467772
0.0485717
0.0502703
0.0518734
0.0533782
0.0547755
0.0560447
0.0571484
0.0580312
0.0586204
0.0590085
0.0593263
0.0596384
0.0599724
0.0603418
0.0607513
0.061202
0.0616919
0.0622193
0.062799
0.0634662
0.0642537
0.0652176
0.0664508
0.0681121
0.0704124
0.0735949
0.0775652
0.0816211
0.0829915
0.0806765
0.0783002
0.086593
0.0191402
0.0172312
0.0188857
0.0207554
0.0227362
0.0248163
0.0269783
0.0292006
0.0314586
0.0337262
0.0359776
0.0381889
0.0403402
0.0424158
0.0444054
0.046304
0.0481098
0.0498244
0.0514485
0.0529804
0.0544117
0.0557235
0.0568805
0.0578288
0.0584959
0.0589521
0.0593252
0.0596834
0.0600576
0.0604649
0.0609131
0.0614057
0.0619426
0.062523
0.0631588
0.0638878
0.0647515
0.0658094
0.0671623
0.0689867
0.0714963
0.0749251
0.0791618
0.0834797
0.0849105
0.0823602
0.0795425
0.0877403
0.0190041
0.0169727
0.0186017
0.0204497
0.0224074
0.0244639
0.0266026
0.0288029
0.031041
0.0332919
0.0355303
0.0377329
0.0398799
0.0419556
0.0439499
0.0458572
0.0476762
0.0494081
0.0510544
0.0526138
0.0540795
0.0554343
0.0566445
0.0576586
0.0584048
0.0589306
0.0593606
0.0597662
0.0601819
0.0606281
0.0611158
0.0616514
0.0622369
0.062873
0.0635693
0.0643643
0.0653086
0.0664667
0.0679478
0.0699462
0.0726805
0.0763691
0.0808826
0.0854722
0.0869826
0.0841876
0.0809138
0.0889395
0.0188732
0.0167168
0.0183204
0.0201476
0.0220831
0.024117
0.0262337
0.0284136
0.0306339
0.0328702
0.0350978
0.037294
0.0394391
0.0415174
0.0435185
0.0454368
0.0472707
0.0490215
0.050691
0.0522788
0.0537793
0.055177
0.0564406
0.0575207
0.0583469
0.0589435
0.0594319
0.0598863
0.0603445
0.0608305
0.0613585
0.061938
0.0625734
0.0632675
0.0640281
0.0648937
0.0659229
0.067187
0.0688043
0.0709873
0.0739616
0.0779244
0.0827268
0.0875986
0.0892122
0.086168
0.0824041
0.0901859
0.0187476
0.0164634
0.0180419
0.0198489
0.0217631
0.0237755
0.0258716
0.0280327
0.0302368
0.0324604
0.0346796
0.0368718
0.0390173
0.0411006
0.0431109
0.0450422
0.0468928
0.048664
0.050358
0.0519749
0.0535107
0.0549514
0.0562684
0.0574146
0.0583213
0.0589899
0.0595381
0.0600425
0.0605442
0.0610707
0.0616396
0.0622636
0.06295
0.0637037
0.0645331
0.0654736
0.0665916
0.0679674
0.0697281
0.0721065
0.0753351
0.0795891
0.0846889
0.0898562
0.0915943
0.0883068
0.0840287
0.091497
0.0186273
0.0162126
0.017766
0.0195536
0.0214473
0.0234393
0.025516
0.0276597
0.0298494
0.0320624
0.0342751
0.0364655
0.0386139
0.0407046
0.0427263
0.0446729
0.0465421
0.0483354
0.050055
0.051702
0.0532735
0.0547574
0.0561277
0.05734
0.0583276
0.0590691
0.0596783
0.0602339
0.06078
0.0613476
0.0619578
0.0626268
0.0633649
0.0641798
0.0650811
0.0661007
0.0673117
0.0688048
0.0707157
0.0732993
0.0767967
0.0813598
0.086768
0.0922472
0.0941345
0.0906113
0.0857977
0.0929134
0.0185124
0.0159644
0.0174927
0.0192616
0.0211355
0.023108
0.0251666
0.0272943
0.0294712
0.0316753
0.0338837
0.0360745
0.0382281
0.0403283
0.0423638
0.0443278
0.0462178
0.0480348
0.0497814
0.0514594
0.0530671
0.0545945
0.0560179
0.0572961
0.0583648
0.0591799
0.0598513
0.060459
0.0610503
0.0616595
0.0623113
0.0630254
0.0638159
0.0646928
0.0656686
0.0667716
0.0680793
0.0696949
0.0717624
0.0745602
0.0783405
0.0832325
0.0889623
0.0947779
0.0968448
0.0930937
0.0877153
0.094465
0.0184031
0.0157188
0.017222
0.0189727
0.0208277
0.0227816
0.024823
0.0269361
0.0291017
0.0312987
0.0335046
0.0356979
0.0378588
0.039971
0.0420226
0.0440061
0.0459187
0.0477612
0.0495364
0.0512464
0.052891
0.0544619
0.0559384
0.0572822
0.0584319
0.0593213
0.0600557
0.0607165
0.0613537
0.0620049
0.0626984
0.0634577
0.0643004
0.0652404
0.0662922
0.0674831
0.0688902
0.0706325
0.0728618
0.0758813
0.0799563
0.0851986
0.0912656
0.0974505
0.0997319
0.0957633
0.0897866
0.0961806
0.0182994
0.0154759
0.0169538
0.0186869
0.0205236
0.0224597
0.024485
0.0265846
0.0287403
0.0309317
0.0331369
0.0353346
0.037505
0.0396313
0.0417011
0.0437064
0.0456438
0.0475136
0.0493187
0.0510619
0.052744
0.0543588
0.0558882
0.0572973
0.0585278
0.0594917
0.0602899
0.0610046
0.0616883
0.0623819
0.063117
0.0639211
0.0648162
0.0658192
0.0669483
0.0682309
0.0697394
0.0716115
0.0740066
0.0772522
0.0816314
0.0872438
0.0936688
0.100262
0.102804
0.098628
0.092023
0.0980891
0.0182015
0.0152356
0.0166879
0.018404
0.020223
0.0221421
0.0241521
0.0262393
0.0283863
0.0305736
0.0327798
0.0349837
0.0371655
0.039308
0.0413982
0.0434274
0.0453915
0.0472905
0.0491272
0.0509047
0.0526252
0.0542842
0.0558664
0.0573403
0.0586512
0.0596899
0.0605525
0.0613218
0.0620525
0.0627885
0.0635651
0.0644136
0.0653603
0.0664266
0.0676334
0.0690103
0.0706231
0.0726253
0.0751889
0.0786618
0.0833513
0.0893511
0.0961609
0.103213
0.106076
0.101706
0.0944235
0.100214
0.0181093
0.014998
0.0164244
0.018124
0.0199259
0.0218286
0.0238241
0.0258997
0.0280392
0.0302235
0.0324321
0.0346439
0.0368389
0.0389996
0.0411123
0.0431675
0.0451603
0.0470904
0.0489602
0.0507734
0.0525332
0.0542366
0.0558715
0.0574098
0.0588004
0.0599139
0.0608415
0.0616659
0.062444
0.0632227
0.0640403
0.0649326
0.0659302
0.067059
0.0683439
0.069817
0.0715386
0.0736683
0.0764031
0.0801018
0.0851039
0.0915034
0.0987264
0.106291
0.109555
0.105023
0.0969826
0.102581
0.0180231
0.0147631
0.0161632
0.0178467
0.0196319
0.0215187
0.0235005
0.0255654
0.0276981
0.0298807
0.0320929
0.034314
0.0365239
0.0387046
0.0408417
0.0429249
0.0449485
0.0469115
0.0488162
0.0506664
0.0524663
0.0542148
0.0559023
0.0575044
0.058974
0.0601621
0.061155
0.062035
0.0628609
0.0636822
0.0645406
0.0654757
0.0665229
0.0677134
0.069076
0.0706462
0.0724815
0.0747359
0.0776417
0.0815628
0.0868766
0.0936844
0.101351
0.109464
0.113209
0.108557
0.099748
0.105289
0.0179429
0.0145309
0.015904
0.0175719
0.019341
0.0212124
0.0231809
0.0252357
0.0273625
0.0295442
0.0317611
0.0339927
0.0362189
0.0384213
0.0405846
0.0426977
0.0447541
0.0467519
0.0486931
0.0505817
0.0524228
0.0542168
0.0559569
0.0576223
0.0591698
0.0604322
0.0614906
0.0624267
0.0633007
0.0641645
0.0650631
0.06604
0.0671356
0.0683861
0.0698254
0.0714927
0.0734449
0.0758245
0.0788936
0.0830283
0.0886443
0.0958557
0.103993
0.112672
0.117015
0.112292
0.102712
0.108304
0.0178687
0.0143015
0.015647
0.0172997
0.0190529
0.0209093
0.022865
0.0249101
0.0270317
0.0292131
0.0314356
0.0336788
0.0359226
0.038148
0.0403392
0.042484
0.044575
0.0466094
0.0485889
0.0505174
0.0524007
0.0542408
0.0560335
0.0577615
0.0593861
0.0607224
0.0618464
0.0628387
0.0637609
0.0646673
0.0656056
0.0666231
0.0677652
0.0690739
0.070588
0.0723514
0.0744221
0.0769311
0.0801476
0.0844856
0.0903871
0.0979929
0.106622
0.115887
0.120924
0.116188
0.105897
0.111679
0.0178006
0.0140748
0.015392
0.0170297
0.0187674
0.0206092
0.0225523
0.0245883
0.0267049
0.0288866
0.0311152
0.0333709
0.0356332
0.037883
0.0401035
0.0422816
0.044409
0.0464818
0.0485013
0.0504711
0.0523977
0.0542845
0.0561299
0.05792
0.0596204
0.0610299
0.0622196
0.0632684
0.064239
0.0651877
0.0661651
0.0672221
0.0684089
0.069773
0.0713593
0.0732166
0.0754051
0.0780451
0.0814006
0.0859173
0.0920788
0.100055
0.109187
0.119037
0.124902
0.120228
0.10928
0.11535
0.0177387
0.013851
0.0151388
0.016762
0.0184845
0.0203118
0.0222426
0.0242696
0.0263815
0.0285638
0.0307991
0.0330677
0.0353494
0.0376245
0.0398756
0.0420885
0.0442538
0.0463668
0.0484279
0.0504405
0.0524116
0.0543459
0.056244
0.0580955
0.0598706
0.0613527
0.0626077
0.0637131
0.0647322
0.0657231
0.066739
0.0678342
0.0690636
0.0704804
0.0721354
0.0740829
0.0763864
0.0791586
0.082648
0.087306
0.0936919
0.102001
0.111627
0.12208
0.128901
0.124399
0.112873
0.119319
0.0176831
0.01363
0.0148875
0.0164965
0.018204
0.020017
0.0219356
0.0239536
0.0260609
0.028244
0.030486
0.0327679
0.0350694
0.0373706
0.0396533
0.0419023
0.044107
0.0462618
0.048366
0.0504229
0.0524397
0.0544221
0.0563731
0.0582855
0.0601338
0.0616877
0.0630079
0.0641698
0.0652375
0.0662706
0.0673243
0.0684566
0.0697264
0.0711926
0.0729125
0.0749458
0.0773601
0.0802642
0.0838877
0.0886581
0.0952162
0.103807
0.113892
0.124932
0.132856
0.128683
0.116693
0.123594
0.0176338
0.013412
0.014638
0.0162329
0.0179256
0.0197244
0.0216308
0.0236399
0.0257425
0.0279262
0.030175
0.0324703
0.034792
0.0371197
0.0394347
0.0417209
0.0439664
0.0461643
0.0483132
0.0504158
0.0524795
0.0545107
0.0565147
0.0584874
0.0604077
0.0620324
0.0634175
0.0646359
0.0657522
0.0668272
0.0679183
0.0690863
0.0703944
0.0719069
0.0736874
0.0758012
0.0783219
0.0813558
0.0851147
0.0899895
0.0966448
0.10546
0.11594
0.127521
0.136658
0.132982
0.120741
0.128214
0.0175909
0.0131969
0.0143901
0.0159712
0.0176493
0.0194339
0.0213281
0.023328
0.0254258
0.0276099
0.0298651
0.0321736
0.0345154
0.03687
0.0392179
0.0415419
0.0438292
0.0460716
0.0482666
0.0504162
0.0525278
0.0546088
0.0566659
0.0586983
0.0606891
0.0623837
0.0638331
0.065108
0.0662729
0.0673897
0.0685176
0.0697202
0.0710645
0.0726201
0.0744561
0.0766456
0.0792661
0.0824263
0.0863216
0.0913023
0.0980056
0.106953
0.117745
0.129759
0.140187
0.137183
0.124942
0.133119
0.0175545
0.012985
0.0141438
0.0157114
0.017375
0.0191453
0.0210272
0.0230177
0.0251103
0.0272943
0.0295556
0.0318769
0.0342385
0.0366199
0.0390008
0.0413633
0.0436932
0.0459811
0.0482234
0.0504213
0.052582
0.0547134
0.0568238
0.0589154
0.0609752
0.0627388
0.0642521
0.0655831
0.0667966
0.067955
0.0691193
0.0703554
0.0717338
0.0733286
0.075216
0.0774735
0.0801884
0.0834666
0.087498
0.0925891
0.0993263
0.10828
0.119286
0.131586
0.143333
0.141196
0.129195
0.138217
0.0175244
0.0127763
0.013899
0.0154532
0.0171025
0.0188586
0.0207278
0.0227087
0.0247955
0.0269789
0.0292456
0.031579
0.03396
0.0363677
0.0387816
0.0411827
0.0435558
0.0458901
0.0481807
0.0504281
0.0526389