/*--------------------------------*- C++ -*----------------------------------*\
| =========                 |                                                 |
| \\      /  F ield         | OpenFOAM: The Open Source CFD Toolbox           |
|  \\    /   O peration     | Version:  2406                                  |
|   \\  /    A nd           | Website:  www.openfoam.com                      |
|    \\/     M anipulation  |                                                 |
\*---------------------------------------------------------------------------*/
FoamFile
{
    version     2.0;
    format      ascii;
    arch        "LSB;label=32;scalar=64";
    class       volScalarField;
    location    "10";
    object      nut;
}
// * * * * * * * * * * * * * * * * * * * * * * * * * * * * * * * * * * * * * //

dimensions      [0 2 -1 0 0 0 0];

internalField   nonuniform List<scalar> 
38016
(
0.000111276
0.000110785
0.000108214
0.000106019
0.000104219
0.000102774
0.000101637
0.000100766
0.000100116
9.96477e-05
9.93242e-05
9.91135e-05
9.89881e-05
9.89253e-05
9.89063e-05
9.89169e-05
9.89456e-05
9.89845e-05
9.90275e-05
9.90706e-05
9.9111e-05
9.91473e-05
9.91801e-05
9.92094e-05
9.92415e-05
9.92793e-05
9.93188e-05
9.93516e-05
9.93776e-05
9.93975e-05
9.94129e-05
9.94268e-05
9.94409e-05
9.94574e-05
9.94769e-05
9.94998e-05
9.95268e-05
9.95585e-05
9.95961e-05
9.96409e-05
9.96958e-05
9.97653e-05
9.9864e-05
9.99375e-05
0.000100195
0.000100574
0.000101197
0.000102455
0.000111483
0.000111069
0.000108471
0.000106244
0.000104414
0.000102941
0.00010178
0.000100887
0.000100217
9.97319e-05
9.93939e-05
9.91708e-05
9.9035e-05
9.89632e-05
9.89368e-05
9.89409e-05
9.89642e-05
9.89982e-05
9.9037e-05
9.90761e-05
9.91128e-05
9.91452e-05
9.91743e-05
9.91994e-05
9.92269e-05
9.92617e-05
9.92983e-05
9.93282e-05
9.93516e-05
9.93691e-05
9.93827e-05
9.93951e-05
9.94078e-05
9.94228e-05
9.94402e-05
9.94601e-05
9.94827e-05
9.95087e-05
9.9539e-05
9.95755e-05
9.96212e-05
9.96817e-05
9.97714e-05
9.98395e-05
0.000100076
0.000100448
0.000101135
0.000102507
0.000111696
0.000111367
0.000108739
0.000106479
0.000104619
0.000103117
0.00010193
0.000101013
0.000100324
9.98209e-05
9.94678e-05
9.92318e-05
9.9085e-05
9.9004e-05
9.89697e-05
9.89672e-05
9.89847e-05
9.90138e-05
9.90481e-05
9.90833e-05
9.91161e-05
9.91447e-05
9.91702e-05
9.91915e-05
9.92149e-05
9.9247e-05
9.9281e-05
9.93089e-05
9.93303e-05
9.93463e-05
9.93588e-05
9.93704e-05
9.93823e-05
9.93962e-05
9.9412e-05
9.94295e-05
9.94486e-05
9.94702e-05
9.94953e-05
9.95262e-05
9.95667e-05
9.96233e-05
9.971e-05
9.97798e-05
0.000100003
0.00010037
0.000101108
0.000102574
0.000111915
0.000111678
0.00010902
0.000106726
0.000104832
0.000103301
0.000102087
0.000101146
0.000100436
9.99148e-05
9.9546e-05
9.92966e-05
9.91385e-05
9.90478e-05
9.90053e-05
9.89959e-05
9.90075e-05
9.90314e-05
9.90612e-05
9.90922e-05
9.91211e-05
9.9146e-05
9.91678e-05
9.91853e-05
9.92048e-05
9.92343e-05
9.9266e-05
9.92924e-05
9.93125e-05
9.93275e-05
9.93392e-05
9.93501e-05
9.93612e-05
9.93738e-05
9.93879e-05
9.94027e-05
9.94184e-05
9.94358e-05
9.94564e-05
9.94831e-05
9.95203e-05
9.95757e-05
9.9662e-05
9.97376e-05
9.99525e-05
0.000100307
0.000101064
0.0001026
0.00011214
0.000112002
0.000109313
0.000106983
0.000105056
0.000103493
0.000102251
0.000101286
0.000100554
0.000100014
9.96288e-05
9.93655e-05
9.91955e-05
9.90948e-05
9.90438e-05
9.90271e-05
9.90326e-05
9.90511e-05
9.90762e-05
9.9103e-05
9.9128e-05
9.91491e-05
9.91673e-05
9.91811e-05
9.91968e-05
9.92238e-05
9.92535e-05
9.92785e-05
9.92975e-05
9.93116e-05
9.93225e-05
9.93325e-05
9.93426e-05
9.93538e-05
9.93658e-05
9.93778e-05
9.93899e-05
9.94032e-05
9.94196e-05
9.94427e-05
9.94775e-05
9.95326e-05
9.9619e-05
9.97011e-05
9.99076e-05
0.000100239
0.000100991
0.000102581
0.000112369
0.000112339
0.000109617
0.00010725
0.000105289
0.000103694
0.000102423
0.000101433
0.000100678
0.000100118
9.97163e-05
9.94386e-05
9.92563e-05
9.91451e-05
9.90852e-05
9.90609e-05
9.906e-05
9.9073e-05
9.90932e-05
9.91156e-05
9.91366e-05
9.91539e-05
9.91683e-05
9.91783e-05
9.91903e-05
9.9215e-05
9.92429e-05
9.92665e-05
9.92844e-05
9.92975e-05
9.93076e-05
9.93167e-05
9.93256e-05
9.93352e-05
9.93451e-05
9.93543e-05
9.93629e-05
9.93724e-05
9.93853e-05
9.94054e-05
9.94388e-05
9.94942e-05
9.95812e-05
9.96703e-05
9.98684e-05
0.000100173
0.000100909
0.000102563
0.000112602
0.00011269
0.000109935
0.000107529
0.000105531
0.000103904
0.000102603
0.000101586
0.000100808
0.000100228
9.98088e-05
9.9516e-05
9.93209e-05
9.91988e-05
9.91297e-05
9.90975e-05
9.90898e-05
9.9097e-05
9.91122e-05
9.913e-05
9.91469e-05
9.91602e-05
9.91708e-05
9.91771e-05
9.91852e-05
9.92076e-05
9.92336e-05
9.92559e-05
9.92727e-05
9.92848e-05
9.92941e-05
9.93022e-05
9.93099e-05
9.93178e-05
9.93255e-05
9.93319e-05
9.93372e-05
9.93433e-05
9.93532e-05
9.93712e-05
9.9404e-05
9.94608e-05
9.95498e-05
9.96478e-05
9.98391e-05
0.000100117
0.000100836
0.000102567
0.000112839
0.000113054
0.000110265
0.000107819
0.000105784
0.000104122
0.000102791
0.000101746
0.000100944
0.000100344
9.99062e-05
9.95979e-05
9.93895e-05
9.9256e-05
9.91772e-05
9.91369e-05
9.91222e-05
9.91233e-05
9.91332e-05
9.91464e-05
9.91589e-05
9.91682e-05
9.91748e-05
9.91772e-05
9.91814e-05
9.92014e-05
9.92255e-05
9.92465e-05
9.92622e-05
9.92733e-05
9.92817e-05
9.92888e-05
9.92952e-05
9.93014e-05
9.9307e-05
9.93107e-05
9.93128e-05
9.93159e-05
9.93235e-05
9.93404e-05
9.93737e-05
9.94335e-05
9.95266e-05
9.9636e-05
9.98237e-05
0.000100078
0.000100782
0.000102599
0.000113078
0.000113431
0.000110607
0.000108121
0.000106047
0.00010435
0.000102987
0.000101914
0.000101087
0.000100465
0.000100009
9.96845e-05
9.94622e-05
9.9317e-05
9.92282e-05
9.91792e-05
9.91572e-05
9.9152e-05
9.91564e-05
9.91647e-05
9.91728e-05
9.91779e-05
9.91805e-05
9.91789e-05
9.9179e-05
9.91965e-05
9.92188e-05
9.92383e-05
9.92529e-05
9.92631e-05
9.92705e-05
9.92765e-05
9.92816e-05
9.92861e-05
9.92896e-05
9.92907e-05
9.92902e-05
9.92908e-05
9.92968e-05
9.93135e-05
9.93484e-05
9.94129e-05
9.95128e-05
9.96361e-05
9.98238e-05
0.00010006
0.00010075
0.000102662
0.000113319
0.000113822
0.000110963
0.000108434
0.000106321
0.000104587
0.000103191
0.000102089
0.000101237
0.000100593
0.000100117
9.97759e-05
9.95393e-05
9.93818e-05
9.92825e-05
9.92246e-05
9.9195e-05
9.91832e-05
9.91819e-05
9.91852e-05
9.91887e-05
9.91894e-05
9.91878e-05
9.9182e-05
9.9178e-05
9.91929e-05
9.92133e-05
9.92313e-05
9.92447e-05
9.92539e-05
9.92603e-05
9.92652e-05
9.92689e-05
9.92718e-05
9.92733e-05
9.92722e-05
9.92692e-05
9.92679e-05
9.92732e-05
9.92904e-05
9.93282e-05
9.93992e-05
9.95086e-05
9.96488e-05
9.98396e-05
0.000100062
0.000100741
0.000102751
0.000113562
0.000114226
0.000111331
0.000108759
0.000106604
0.000104833
0.000103404
0.000102272
0.000101394
0.000100726
0.000100231
9.98723e-05
9.96208e-05
9.94506e-05
9.93404e-05
9.92732e-05
9.92356e-05
9.9217e-05
9.92098e-05
9.92077e-05
9.92065e-05
9.92028e-05
9.91968e-05
9.91868e-05
9.91783e-05
9.91906e-05
9.92089e-05
9.92255e-05
9.92376e-05
9.92457e-05
9.92511e-05
9.92548e-05
9.92572e-05
9.92585e-05
9.92582e-05
9.92551e-05
9.92502e-05
9.92476e-05
9.92528e-05
9.92714e-05
9.93133e-05
9.93928e-05
9.95145e-05
9.96743e-05
9.98717e-05
0.000100085
0.00010075
0.000102863
0.000113805
0.000114644
0.000111713
0.000109096
0.000106899
0.000105089
0.000103626
0.000102463
0.000101557
0.000100866
0.00010035
9.99737e-05
9.97069e-05
9.95234e-05
9.94019e-05
9.9325e-05
9.92792e-05
9.92535e-05
9.924e-05
9.92325e-05
9.92263e-05
9.9218e-05
9.92075e-05
9.9193e-05
9.918e-05
9.91894e-05
9.92057e-05
9.92205e-05
9.92314e-05
9.92383e-05
9.92426e-05
9.92452e-05
9.92462e-05
9.92461e-05
9.92443e-05
9.92396e-05
9.92332e-05
9.92298e-05
9.92355e-05
9.92564e-05
9.93036e-05
9.93936e-05
9.95307e-05
9.97129e-05
9.99205e-05
0.000100126
0.000100779
0.000102995
0.000114047
0.000115076
0.000112108
0.000109444
0.000107204
0.000105355
0.000103856
0.000102662
0.000101728
0.000101012
0.000100475
0.00010008
9.97975e-05
9.96004e-05
9.94672e-05
9.93802e-05
9.93257e-05
9.92926e-05
9.92727e-05
9.92595e-05
9.92481e-05
9.92351e-05
9.92198e-05
9.92008e-05
9.91831e-05
9.91893e-05
9.92035e-05
9.92166e-05
9.9226e-05
9.92317e-05
9.92349e-05
9.92363e-05
9.92361e-05
9.92347e-05
9.92317e-05
9.92259e-05
9.92184e-05
9.92147e-05
9.92215e-05
9.92454e-05
9.92992e-05
9.94017e-05
9.95575e-05
9.97651e-05
9.99858e-05
0.000100187
0.000100826
0.000103145
0.000114288
0.000115521
0.000112516
0.000109805
0.00010752
0.000105631
0.000104095
0.000102868
0.000101906
0.000101165
0.000100606
0.000100192
9.98929e-05
9.96815e-05
9.95361e-05
9.94388e-05
9.93753e-05
9.93345e-05
9.93079e-05
9.92888e-05
9.9272e-05
9.9254e-05
9.92339e-05
9.921e-05
9.91873e-05
9.91903e-05
9.92021e-05
9.92133e-05
9.92212e-05
9.92256e-05
9.92276e-05
9.9228e-05
9.92266e-05
9.92242e-05
9.92204e-05
9.92138e-05
9.92057e-05
9.92022e-05
9.92107e-05
9.92384e-05
9.93002e-05
9.94176e-05
9.9595e-05
9.98317e-05
0.000100068
0.000100266
0.000100889
0.000103311
0.000114527
0.000115979
0.000112938
0.000110178
0.000107848
0.000105916
0.000104343
0.000103083
0.000102091
0.000101325
0.000100743
0.000100309
9.9993e-05
9.9767e-05
9.96089e-05
9.95007e-05
9.9428e-05
9.93791e-05
9.93455e-05
9.93203e-05
9.9298e-05
9.92748e-05
9.92496e-05
9.92207e-05
9.91928e-05
9.91922e-05
9.92016e-05
9.92107e-05
9.92169e-05
9.92199e-05
9.92208e-05
9.92201e-05
9.92178e-05
9.92146e-05
9.92103e-05
9.92034e-05
9.91952e-05
9.91923e-05
9.9203e-05
9.92354e-05
9.93065e-05
9.94412e-05
9.96439e-05
9.99133e-05
0.000100168
0.000100364
0.000100969
0.000103495
0.000114762
0.000116451
0.000113373
0.000110563
0.000108186
0.000106212
0.0001046
0.000103306
0.000102284
0.000101491
0.000100885
0.000100432
0.000100098
9.98566e-05
9.96855e-05
9.9566e-05
9.94836e-05
9.94264e-05
9.93856e-05
9.93539e-05
9.93258e-05
9.92973e-05
9.92668e-05
9.92327e-05
9.91993e-05
9.91948e-05
9.92016e-05
9.92085e-05
9.92129e-05
9.92145e-05
9.92142e-05
9.92124e-05
9.92094e-05
9.92058e-05
9.92014e-05
9.91947e-05
9.91868e-05
9.91849e-05
9.91984e-05
9.92364e-05
9.93184e-05
9.94729e-05
9.97052e-05
0.000100011
0.000100287
0.00010048
0.000101067
0.000103698
0.000114992
0.000116936
0.000113822
0.000110961
0.000108536
0.000106518
0.000104867
0.000103537
0.000102484
0.000101663
0.000101034
0.000100559
0.000100207
9.99505e-05
9.97658e-05
9.96347e-05
9.95423e-05
9.94764e-05
9.94281e-05
9.93898e-05
9.93557e-05
9.93215e-05
9.92856e-05
9.9246e-05
9.92069e-05
9.91982e-05
9.92021e-05
9.92066e-05
9.92091e-05
9.92092e-05
9.92076e-05
9.9205e-05
9.92014e-05
9.91977e-05
9.91937e-05
9.91876e-05
9.91805e-05
9.91801e-05
9.91969e-05
9.92416e-05
9.93362e-05
9.95136e-05
9.97795e-05
0.000100126
0.000100426
0.000100615
0.000101184
0.000103921
0.000115216
0.000117435
0.000114285
0.000111372
0.000108897
0.000106834
0.000105142
0.000103777
0.000102692
0.000101843
0.000101189
0.000100693
0.000100322
0.000100048
9.98498e-05
9.97066e-05
9.96038e-05
9.9529e-05
9.94728e-05
9.94276e-05
9.93873e-05
9.93474e-05
9.93057e-05
9.92605e-05
9.92153e-05
9.92021e-05
9.92029e-05
9.92049e-05
9.92052e-05
9.92037e-05
9.92009e-05
9.91975e-05
9.91936e-05
9.91902e-05
9.9187e-05
9.91821e-05
9.91762e-05
9.91777e-05
9.91987e-05
9.92512e-05
9.93603e-05
9.95639e-05
9.98681e-05
0.000100261
0.000100585
0.00010077
0.00010132
0.000104167
0.000115433
0.000117946
0.000114761
0.000111795
0.000109269
0.00010716
0.000105427
0.000104024
0.000102906
0.000102029
0.000101349
0.000100831
0.000100441
0.000100151
9.99374e-05
9.97817e-05
9.96681e-05
9.9584e-05
9.95198e-05
9.94674e-05
9.94206e-05
9.93747e-05
9.93271e-05
9.9276e-05
9.92244e-05
9.92064e-05
9.92038e-05
9.92031e-05
9.92012e-05
9.9198e-05
9.9194e-05
9.919e-05
9.9186e-05
9.91832e-05
9.91814e-05
9.91782e-05
9.91739e-05
9.91779e-05
9.92039e-05
9.92655e-05
9.93915e-05
9.9625e-05
9.99726e-05
0.000100416
0.000100767
0.000100946
0.000101476
0.000104436
0.000115642
0.000118471
0.000115252
0.000112231
0.000109654
0.000107497
0.000105721
0.000104281
0.000103129
0.000102221
0.000101515
0.000100974
0.000100564
0.000100257
0.000100028
9.98598e-05
9.97351e-05
9.96414e-05
9.95687e-05
9.9509e-05
9.94555e-05
9.94034e-05
9.93497e-05
9.92923e-05
9.92341e-05
9.92109e-05
9.92047e-05
9.9201e-05
9.91968e-05
9.91917e-05
9.91866e-05
9.91821e-05
9.91784e-05
9.91767e-05
9.91768e-05
9.91757e-05
9.91737e-05
9.91808e-05
9.92128e-05
9.92852e-05
9.94303e-05
9.96982e-05
0.000100094
0.000100594
0.000100974
0.000101144
0.000101651
0.000104729
0.000115841
0.000119008
0.000115757
0.000112679
0.000110049
0.000107844
0.000106025
0.000104545
0.000103359
0.00010242
0.000101687
0.000101122
0.000100692
0.000100366
0.000100123
9.99408e-05
9.98046e-05
9.97009e-05
9.96196e-05
9.95522e-05
9.94918e-05
9.94333e-05
9.93732e-05
9.93094e-05
9.92442e-05
9.92155e-05
9.92054e-05
9.91986e-05
9.91918e-05
9.91849e-05
9.91787e-05
9.91739e-05
9.91709e-05
9.91707e-05
9.91731e-05
9.91748e-05
9.91757e-05
9.91866e-05
9.92259e-05
9.93108e-05
9.9478e-05
9.97845e-05
0.000100236
0.000100798
0.000101209
0.000101366
0.000101847
0.000105046
0.000116028
0.000119558
0.000116276
0.000113141
0.000110457
0.000108202
0.000106338
0.000104818
0.000103596
0.000102625
0.000101865
0.000101276
0.000100824
0.00010048
0.00010022
0.000100024
9.98764e-05
9.97624e-05
9.96722e-05
9.95969e-05
9.95293e-05
9.94641e-05
9.93975e-05
9.9327e-05
9.92545e-05
9.92199e-05
9.92056e-05
9.91955e-05
9.91861e-05
9.91772e-05
9.917e-05
9.91652e-05
9.91631e-05
9.91649e-05
9.91702e-05
9.91755e-05
9.91799e-05
9.91957e-05
9.92436e-05
9.9343e-05
9.95356e-05
9.98859e-05
0.000100399
0.000101029
0.000101473
0.000101612
0.000102065
0.000105388
0.000116203
0.00012012
0.000116809
0.000113616
0.000110876
0.000108571
0.00010666
0.000105099
0.00010384
0.000102837
0.000102048
0.000101433
0.00010096
0.000100597
0.000100321
0.000100111
9.99503e-05
9.98257e-05
9.97262e-05
9.96427e-05
9.95678e-05
9.94958e-05
9.94225e-05
9.9345e-05
9.9265e-05
9.92241e-05
9.92053e-05
9.91917e-05
9.91795e-05
9.91687e-05
9.91605e-05
9.9156e-05
9.91553e-05
9.91596e-05
9.91683e-05
9.91778e-05
9.91866e-05
9.92084e-05
9.92666e-05
9.93829e-05
9.96045e-05
0.000100004
0.000100587
0.000101292
0.00010177
0.000101885
0.000102303
0.000105754
0.000116364
0.000120694
0.000117356
0.000114104
0.000111307
0.000108949
0.000106991
0.000105388
0.000104091
0.000103055
0.000102236
0.000101596
0.000101099
0.000100717
0.000100424
0.000100199
0.000100026
9.98905e-05
9.97814e-05
9.96896e-05
9.96072e-05
9.95281e-05
9.94478e-05
9.93632e-05
9.92753e-05
9.92278e-05
9.92042e-05
9.9187e-05
9.91719e-05
9.91592e-05
9.91501e-05
9.91461e-05
9.91472e-05
9.91545e-05
9.91674e-05
9.91818e-05
9.91961e-05
9.92252e-05
9.92957e-05
9.94313e-05
9.96863e-05
0.000100141
0.000100801
0.000101587
0.000102102
0.000102187
0.000102566
0.000106147
0.000116509
0.00012128
0.000117918
0.000114605
0.00011175
0.000109339
0.000107332
0.000105685
0.000104349
0.000103279
0.00010243
0.000101762
0.000101242
0.00010084
0.000100529
0.000100289
0.000100103
9.99565e-05
9.98377e-05
9.97372e-05
9.9647e-05
9.95608e-05
9.94734e-05
9.93814e-05
9.92854e-05
9.92309e-05
9.92022e-05
9.91812e-05
9.91633e-05
9.91486e-05
9.91389e-05
9.91356e-05
9.9139e-05
9.91499e-05
9.91676e-05
9.9188e-05
9.92088e-05
9.92469e-05
9.93315e-05
9.94897e-05
9.97821e-05
0.000100299
0.000101043
0.00010192
0.00010247
0.000102519
0.000102852
0.000106563
0.000116638
0.000121876
0.000118494
0.00011512
0.000112205
0.000109739
0.000107683
0.00010599
0.000104615
0.000103508
0.000102628
0.000101933
0.000101389
0.000100965
0.000100637
0.000100381
0.000100182
0.000100023
9.98945e-05
9.97852e-05
9.96871e-05
9.95936e-05
9.94989e-05
9.93994e-05
9.92951e-05
9.92332e-05
9.91992e-05
9.91743e-05
9.91534e-05
9.91369e-05
9.91266e-05
9.91244e-05
9.91306e-05
9.91457e-05
9.91691e-05
9.91964e-05
9.92253e-05
9.92739e-05
9.93751e-05
9.9559e-05
9.98935e-05
0.00010048
0.000101316
0.000102291
0.000102876
0.000102884
0.000103162
0.000107002
0.000116747
0.000122484
0.000119085
0.000115648
0.000112672
0.00011015
0.000108042
0.000106304
0.000104887
0.000103744
0.000102831
0.000102107
0.000101538
0.000101093
0.000100746
0.000100474
0.000100261
0.000100091
9.99518e-05
9.98335e-05
9.97273e-05
9.96262e-05
9.95242e-05
9.94171e-05
9.93042e-05
9.92347e-05
9.91951e-05
9.91662e-05
9.91423e-05
9.9124e-05
9.91134e-05
9.91127e-05
9.91223e-05
9.91423e-05
9.91722e-05
9.92076e-05
9.9246e-05
9.93071e-05
9.94275e-05
9.96405e-05
0.000100022
0.000100684
0.000101621
0.000102701
0.000103319
0.000103282
0.000103499
0.000107461
0.000116837
0.000123101
0.00011969
0.000116189
0.000113151
0.000110571
0.000108411
0.000106625
0.000105165
0.000103984
0.000103038
0.000102285
0.000101691
0.000101223
0.000100857
0.000100569
0.000100341
0.000100159
0.000100009
9.98816e-05
9.97672e-05
9.96585e-05
9.9549e-05
9.94341e-05
9.93125e-05
9.92352e-05
9.91898e-05
9.91567e-05
9.913e-05
9.911e-05
9.90994e-05
9.91005e-05
9.91142e-05
9.91399e-05
9.91772e-05
9.92221e-05
9.92717e-05
9.93476e-05
9.94896e-05
9.97357e-05
0.000100169
0.000100915
0.000101959
0.000103149
0.000103798
0.000103714
0.00010387
0.000107943
0.000116905
0.000123729
0.00012031
0.000116745
0.000113643
0.000111004
0.000108789
0.000106954
0.00010545
0.00010423
0.000103249
0.000102466
0.000101845
0.000101355
0.000100968
0.000100663
0.000100421
0.000100227
0.000100066
9.99293e-05
9.98066e-05
9.96902e-05
9.95732e-05
9.94504e-05
9.932e-05
9.92346e-05
9.91832e-05
9.91459e-05
9.91164e-05
9.9095e-05
9.90846e-05
9.90881e-05
9.91065e-05
9.91387e-05
9.91846e-05
9.92404e-05
9.93033e-05
9.93962e-05
9.95629e-05
9.98456e-05
0.000100337
0.000101172
0.000102331
0.000103634
0.000104312
0.000104178
0.000104272
0.000108447
0.00011695
0.000124365
0.000120945
0.000117314
0.000114147
0.000111447
0.000109177
0.000107291
0.000105742
0.000104482
0.000103465
0.00010265
0.000102002
0.000101488
0.000101081
0.000100759
0.000100502
0.000100294
0.000100123
9.99763e-05
9.98451e-05
9.97211e-05
9.95965e-05
9.94658e-05
9.93265e-05
9.92328e-05
9.91752e-05
9.91338e-05
9.91016e-05
9.9079e-05
9.90693e-05
9.90756e-05
9.90994e-05
9.91392e-05
9.91949e-05
9.92633e-05
9.93416e-05
9.94541e-05
9.96487e-05
9.9972e-05
0.000100526
0.000101458
0.00010274
0.000104159
0.000104865
0.000104672
0.000104711
0.000108985
0.000116971
0.000125009
0.000121595
0.000117897
0.000114664
0.000111901
0.000109574
0.000107636
0.00010604
0.000104738
0.000103684
0.000102837
0.000102161
0.000101622
0.000101194
0.000100854
0.000100582
0.000100361
0.000100178
0.000100022
9.98827e-05
9.97508e-05
9.96187e-05
9.94801e-05
9.93319e-05
9.92299e-05
9.9166e-05
9.91203e-05
9.90856e-05
9.90622e-05
9.90536e-05
9.90634e-05
9.90933e-05
9.91419e-05
9.92088e-05
9.92916e-05
9.93878e-05
9.95228e-05
9.97486e-05
0.000100117
0.00010074
0.000101776
0.000103189
0.000104728
0.00010546
0.0001052
0.000105173
0.000109545
0.000116966
0.000125661
0.000122259
0.000118495
0.000115193
0.000112367
0.00010998
0.000107989
0.000106345
0.000104999
0.000103907
0.000103027
0.000102321
0.000101757
0.000101308
0.000100949
0.000100661
0.000100427
0.000100233
0.000100067
9.99188e-05
9.97792e-05
9.96396e-05
9.94932e-05
9.93361e-05
9.92257e-05
9.91554e-05
9.91056e-05
9.90686e-05
9.90447e-05
9.90377e-05
9.90515e-05
9.90886e-05
9.91471e-05
9.92268e-05
9.93262e-05
9.94431e-05
9.96037e-05
9.98648e-05
0.000100283
0.000100982
0.00010213
0.000103681
0.000105347
0.000106107
0.000105761
0.000105661
0.000110144
0.000116933
0.000126319
0.000122938
0.000119107
0.000115735
0.000112843
0.000110396
0.00010835
0.000106656
0.000105265
0.000104134
0.000103219
0.000102483
0.000101893
0.000101421
0.000101043
0.000100739
0.000100491
0.000100286
0.00010011
9.99534e-05
9.9806e-05
9.9659e-05
9.95049e-05
9.93391e-05
9.92203e-05
9.91436e-05
9.90898e-05
9.90507e-05
9.90268e-05
9.90219e-05
9.90406e-05
9.90857e-05
9.91555e-05
9.92497e-05
9.9368e-05
9.95086e-05
9.96987e-05
9.99993e-05
0.000100474
0.000101255
0.000102522
0.000104222
0.000106023
0.00010681
0.000106359
0.000106163
0.000110774
0.000116873
0.000126983
0.000123633
0.000119733
0.000116291
0.000113332
0.000110822
0.000108719
0.000106973
0.000105537
0.000104364
0.000103413
0.000102646
0.000102029
0.000101535
0.000101137
0.000100816
0.000100555
0.000100337
0.000100152
9.99862e-05
9.98311e-05
9.96768e-05
9.95151e-05
9.93408e-05
9.92136e-05
9.91306e-05
9.90729e-05
9.90321e-05
9.90085e-05
9.90064e-05
9.90308e-05
9.90849e-05
9.91675e-05
9.92782e-05
9.9418e-05
9.95855e-05
9.98092e-05
0.000100154
0.000100691
0.000101563
0.000102959
0.000104815
0.00010676
0.000107573
0.000106998
0.000106676
0.000111436
0.000116783
0.000127651
0.000124342
0.000120375
0.00011686
0.000113831
0.000111258
0.000109096
0.000107297
0.000105813
0.000104598
0.00010361
0.000102811
0.000102166
0.000101647
0.00010123
0.000100892
0.000100616
0.000100387
0.000100191
0.000100017
9.98543e-05
9.96928e-05
9.95238e-05
9.93411e-05
9.92058e-05
9.91165e-05
9.90551e-05
9.90128e-05
9.89901e-05
9.89916e-05
9.90225e-05
9.90867e-05
9.91836e-05
9.93129e-05
9.94768e-05
9.9675e-05
9.99367e-05
0.000100332
0.000100938
0.000101909
0.000103441
0.000105462
0.00010756
0.000108399
0.000107678
0.000107202
0.00011212
0.000116663
0.000128322
0.000125066
0.000121031
0.000117442
0.000114343
0.000111704
0.000109481
0.000107627
0.000106094
0.000104835
0.000103809
0.000102976
0.000102303
0.00010176
0.000101321
0.000100966
0.000100676
0.000100434
0.000100228
0.000100046
9.98754e-05
9.9707e-05
9.95308e-05
9.93402e-05
9.91969e-05
9.91015e-05
9.90365e-05
9.89932e-05
9.89719e-05
9.89776e-05
9.90159e-05
9.90915e-05
9.92043e-05
9.93543e-05
9.95452e-05
9.97777e-05
0.000100082
0.000100532
0.000101215
0.000102294
0.00010397
0.000106163
0.000108421
0.000109286
0.000108402
0.00010774
0.000112806
0.000116512
0.000128994
0.000125806
0.000121703
0.000118038
0.000114867
0.00011216
0.000109875
0.000107964
0.00010638
0.000105076
0.00010401
0.000103143
0.00010244
0.000101871
0.000101412
0.000101038
0.000100733
0.000100479
0.000100263
0.000100072
9.98944e-05
9.97191e-05
9.95361e-05
9.9338e-05
9.91871e-05
9.90856e-05
9.90174e-05
9.89735e-05
9.89541e-05
9.89648e-05
9.90116e-05
9.90995e-05
9.92299e-05
9.94029e-05
9.96236e-05
9.98941e-05
0.000100246
0.000100757
0.000101524
0.000102718
0.000104545
0.000106917
0.00010934
0.000110231
0.000109168
0.000108278
0.000113461
0.000116329
0.000129666
0.00012656
0.00012239
0.000118649
0.000115404
0.000112627
0.000110278
0.000108308
0.000106671
0.000105321
0.000104214
0.000103311
0.000102577
0.000101982
0.000101501
0.000101109
0.000100789
0.000100522
0.000100296
0.000100096
9.9911e-05
9.97292e-05
9.95397e-05
9.93344e-05
9.91762e-05
9.90691e-05
9.89979e-05
9.89537e-05
9.89369e-05
9.89533e-05
9.90095e-05
9.91111e-05
9.92608e-05
9.9459e-05
9.97122e-05
0.000100024
0.000100429
0.000101006
0.000101865
0.000103182
0.000105166
0.000107721
0.000110311
0.000111233
0.000109976
0.00010883
0.000114088
0.000116113
0.000130337
0.00012733
0.000123093
0.000119274
0.000115954
0.000113106
0.00011069
0.00010866
0.000106969
0.00010557
0.00010442
0.00010348
0.000102715
0.000102093
0.000101588
0.000101178
0.000100842
0.000100563
0.000100326
0.000100118
9.99253e-05
9.97371e-05
9.95416e-05
9.93297e-05
9.91647e-05
9.90522e-05
9.89783e-05
9.89343e-05
9.89206e-05
9.89435e-05
9.90101e-05
9.91266e-05
9.9297e-05
9.95229e-05
9.98113e-05
0.000100169
0.000100631
0.00010128
0.000102238
0.000103685
0.000105833
0.000108571
0.000111329
0.000112279
0.000110828
0.000109389
0.000114653
0.000115865
0.000131003
0.000128114
0.000123812
0.000119914
0.000116516
0.000113595
0.000111111
0.000109019
0.000107272
0.000105823
0.000104629
0.000103651
0.000102853
0.000102203
0.000101675
0.000101245
0.000100893
0.000100601
0.000100353
0.000100137
9.99373e-05
9.9743e-05
9.95418e-05
9.93239e-05
9.91525e-05
9.90349e-05
9.89587e-05
9.89153e-05
9.89053e-05
9.89354e-05
9.90135e-05
9.91462e-05
9.93388e-05
9.95945e-05
9.99208e-05
0.000100327
0.000100851
0.000101578
0.000102643
0.000104228
0.000106543
0.000109465
0.000112388
0.000113367
0.000111721
0.000109978
0.000115178
0.000115585
0.000131664
0.000128913
0.000124547
0.00012057
0.000117093
0.000114097
0.000111543
0.000109386
0.000107581
0.00010608
0.000104841
0.000103823
0.000102991
0.000102313
0.000101761
0.000101311
0.000100942
0.000100637
0.000100379
0.000100153
9.99469e-05
9.97468e-05
9.95403e-05
9.9317e-05
9.91398e-05
9.90176e-05
9.89395e-05
9.88971e-05
9.88914e-05
9.89293e-05
9.90197e-05
9.91701e-05
9.93861e-05
9.96736e-05
0.000100041
0.000100499
0.00010109
0.000101901
0.00010308
0.000104811
0.000107297
0.0001104
0.000113486
0.000114491
0.000112658
0.000110588
0.000115648
0.000115272
0.000132317
0.000129727
0.0001253
0.000121241
0.000117684
0.000114611
0.000111985
0.000109762
0.000107897
0.000106343
0.000105057
0.000103998
0.000103131
0.000102423
0.000101846
0.000101375
0.00010099
0.000100671
0.000100401
0.000100167
9.99543e-05
9.97486e-05
9.95373e-05
9.93092e-05
9.91268e-05
9.90004e-05
9.89207e-05
9.88797e-05
9.88788e-05
9.89253e-05
9.9029e-05
9.9198e-05
9.94391e-05
9.976e-05
0.00010017
0.000100685
0.000101346
0.000102247
0.000103549
0.000105432
0.000108094
0.000111377
0.000114627
0.00011566
0.000113644
0.000111231
0.000116088
0.000114926
0.000132959
0.000130556
0.000126069
0.000121928
0.00011829
0.000115138
0.000112438
0.000110148
0.000108221
0.000106611
0.000105276
0.000104176
0.000103272
0.000102533
0.00010193
0.000101439
0.000101036
0.000100703
0.000100422
0.000100179
9.99596e-05
9.97486e-05
9.95328e-05
9.93006e-05
9.91136e-05
9.89835e-05
9.89026e-05
9.88635e-05
9.88679e-05
9.89236e-05
9.90412e-05
9.923e-05
9.94976e-05
9.9853e-05
0.00010031
0.000100883
0.000101619
0.000102616
0.000104047
0.000106091
0.000108933
0.000112398
0.000115813
0.00011688
0.000114687
0.000111905
0.000116489
0.000114549
0.000133587
0.000131399
0.000126855
0.000122633
0.00011891
0.000115679
0.000112903
0.000110543
0.000108552
0.000106886
0.000105501
0.000104356
0.000103415
0.000102644
0.000102015
0.000101501
0.00010108
0.000100733
0.000100441
0.000100189
9.99629e-05
9.97468e-05
9.9527e-05
9.92914e-05
9.91005e-05
9.89672e-05
9.88855e-05
9.88486e-05
9.88586e-05
9.89241e-05
9.90564e-05
9.92658e-05
9.95613e-05
9.99526e-05
0.000100457
0.000101092
0.000101908
0.000103007
0.000104573
0.000106787
0.000109813
0.000113459
0.00011704
0.000118151
0.000115784
0.000112625
0.000116884
0.000114141
0.000134199
0.000132255
0.00012766
0.000123354
0.000119547
0.000116233
0.00011338
0.000110948
0.000108892
0.000107167
0.00010573
0.00010454
0.000103561
0.000102757
0.0001021
0.000101563
0.000101124
0.000100762
0.000100458
0.000100198
9.99644e-05
9.97434e-05
9.95201e-05
9.92818e-05
9.90877e-05
9.89517e-05
9.88696e-05
9.88353e-05
9.88513e-05
9.89269e-05
9.90744e-05
9.93053e-05
9.96297e-05
0.000100058
0.000100612
0.000101312
0.000102211
0.000103416
0.000105123
0.000107514
0.000110729
0.000114557
0.000118304
0.000119473
0.00011694
0.000113391
0.00011728
0.000113704
0.000134791
0.000133125
0.000128482
0.000124093
0.0001202
0.000116803
0.00011387
0.000111364
0.000109241
0.000107456
0.000105965
0.000104729
0.000103709
0.000102871
0.000102186
0.000101626
0.000101167
0.00010079
0.000100474
0.000100205
9.99645e-05
9.97388e-05
9.95123e-05
9.92718e-05
9.90752e-05
9.89371e-05
9.8855e-05
9.88236e-05
9.88459e-05
9.8932e-05
9.90952e-05
9.93481e-05
9.97022e-05
0.000100169
0.000100773
0.00010154
0.000102525
0.00010384
0.000105694
0.000108267
0.000111679
0.000115685
0.000119601
0.00012084
0.000118153
0.000114213
0.000117693
0.000113237
0.00013536
0.000134008
0.000129322
0.00012485
0.000120871
0.000117388
0.000114374
0.000111793
0.0001096
0.000107752
0.000106207
0.000104922
0.000103861
0.000102988
0.000102273
0.000101689
0.00010121
0.000100817
0.000100489
0.00010021
9.99634e-05
9.97331e-05
9.95038e-05
9.92619e-05
9.90634e-05
9.89238e-05
9.8842e-05
9.88137e-05
9.88426e-05
9.89393e-05
9.91184e-05
9.93938e-05
9.97784e-05
0.000100285
0.000100938
0.000101775
0.000102849
0.000104276
0.000106282
0.000109043
0.000112656
0.000116842
0.00012093
0.000122252
0.000119428
0.000115099
0.000118162
0.000112744
0.000135902
0.000134903
0.000130182
0.000125626
0.000121558
0.000117989
0.000114893
0.000112233
0.00010997
0.000108058
0.000106456
0.000105122
0.000104017
0.000103108
0.000102363
0.000101753
0.000101254
0.000100844
0.000100504
0.000100215
9.99615e-05
9.97267e-05
9.94949e-05
9.92522e-05
9.90524e-05
9.89117e-05
9.88306e-05
9.88057e-05
9.88413e-05
9.89488e-05
9.91438e-05
9.94419e-05
9.98573e-05
0.000100405
0.000101108
0.000102013
0.000103179
0.000104721
0.00010688
0.000109835
0.000113658
0.000118023
0.000122293
0.000123717
0.000120769
0.000116051
0.000118715
0.000112225
0.000136413
0.00013581
0.000131059
0.000126421
0.000122265
0.000118607
0.000115427
0.000112688
0.000110351
0.000108374
0.000106713
0.000105327
0.000104179
0.000103232
0.000102455
0.000101819
0.000101299
0.000100872
0.000100519
0.00010022
9.99592e-05
9.97199e-05
9.94859e-05
9.92428e-05
9.90424e-05
9.89012e-05
9.88212e-05
9.87998e-05
9.88421e-05
9.89603e-05
9.91712e-05
9.94919e-05
9.99384e-05
0.000100527
0.000101282
0.000102253
0.000103512
0.00010517
0.000107484
0.000110634
0.000114674
0.000119222
0.000123686
0.000125233
0.000122177
0.000117068
0.000119366
0.000111682
0.000136888
0.000136727
0.000131956
0.000127236
0.00012299
0.000119243
0.000115976
0.000113156
0.000110745
0.0001087
0.000106978
0.00010554
0.000104346
0.00010336
0.000102551
0.000101888
0.000101345
0.000100901
0.000100534
0.000100225
9.99568e-05
9.9713e-05
9.9477e-05
9.92341e-05
9.90336e-05
9.88925e-05
9.88138e-05
9.8796e-05
9.8845e-05
9.89737e-05
9.92002e-05
9.95433e-05
0.000100021
0.00010065
0.000101457
0.000102492
0.000103843
0.000105618
0.000108085
0.000111431
0.000115693
0.000120432
0.000125107
0.000126804
0.000123654
0.000118157
0.000120129
0.000111118
0.000137323
0.000137653
0.000132872
0.000128071
0.000123735
0.000119898
0.000116543
0.00011364
0.000111152
0.000109037
0.000107254
0.000105761
0.00010452
0.000103494
0.00010265
0.000101959
0.000101394
0.000100932
0.00010055
0.00010023
9.99549e-05
9.97065e-05
9.94686e-05
9.92264e-05
9.90263e-05
9.88856e-05
9.88085e-05
9.87945e-05
9.885e-05
9.89889e-05
9.92306e-05
9.95955e-05
0.000100103
0.000100774
0.000101633
0.00010273
0.000104169
0.000106059
0.000108674
0.000112215
0.000116702
0.000121644
0.000126554
0.000128437
0.00012521
0.000119322