/*--------------------------------*- C++ -*----------------------------------*\
| =========                 |                                                 |
| \\      /  F ield         | OpenFOAM: The Open Source CFD Toolbox           |
|  \\    /   O peration     | Version:  2406                                  |
|   \\  /    A nd           | Website:  www.openfoam.com                      |
|    \\/     M anipulation  |                                                 |
\*---------------------------------------------------------------------------*/
FoamFile
{
    version     2.0;
    format      ascii;
    arch        "LSB;label=32;scalar=64";
    class       volScalarField;
    location    "10";
    object      omega;
}
// * * * * * * * * * * * * * * * * * * * * * * * * * * * * * * * * * * * * * //

dimensions      [0 0 -1 0 0 0 0];

internalField   nonuniform List<scalar> 
38016
(
236.168
250.886
283.896
319.568
357.291
396.579
436.853
477.461
517.727
556.984
594.623
630.127
663.09
693.23
720.388
744.514
765.635
783.859
799.322
812.176
822.566
830.637
836.493
840.248
842.024
843.153
844.472
845.815
847.159
848.447
849.664
850.833
851.945
853.028
854.073
855.086
856.063
857
857.902
858.774
859.681
860.658
861.9
862.993
865.373
868.45
873.039
881.962
234.874
248.983
281.707
317.105
354.56
393.593
433.63
474.025
514.103
553.2
590.703
626.094
658.959
689.013
716.087
740.125
761.146
779.25
794.563
807.228
817.378
825.143
830.614
833.884
835.058
835.623
836.493
837.495
838.575
839.661
840.727
841.781
842.806
843.817
844.801
845.756
846.671
847.535
848.348
849.122
849.929
850.816
851.981
853.033
855.269
858.278
863.272
872.893
233.485
246.956
279.384
314.496
351.672
390.439
430.228
470.4
510.281
549.208
586.567
621.836
654.598
684.561
711.549
735.499
756.424
774.412
789.584
802.071
811.995
819.472
824.579
827.39
827.993
828.022
828.464
829.146
829.977
830.875
831.799
832.745
833.685
834.624
835.544
836.435
837.286
838.081
838.824
839.529
840.284
841.147
842.304
843.37
845.531
848.485
853.777
863.949
232.008
244.814
276.934
311.751
348.639
387.129
426.661
466.599
506.272
545.019
582.225
617.365
650.018
679.885
706.786
730.648
751.48
769.36
784.401
796.724
806.44
813.652
818.421
820.805
820.873
820.399
820.443
820.827
821.431
822.156
822.95
823.795
824.653
825.518
826.371
827.196
827.978
828.704
829.379
830.024
830.747
831.611
832.795
833.911
836.022
838.871
844.248
854.769
230.448
242.56
274.363
308.876
345.464
383.668
422.932
462.624
502.078
540.635
577.678
612.679
645.215
674.981
701.79
725.565
746.306
764.084
779.004
791.178
800.704
807.673
812.13
814.117
813.685
812.744
812.416
812.523
812.915
813.478
814.151
814.899
815.677
816.47
817.253
818.009
818.724
819.381
819.995
820.592
821.299
822.181
823.382
824.53
826.584
829.258
834.542
845.292
228.81
240.2
271.674
305.873
342.152
380.057
419.04
458.474
497.697
536.05
572.918
607.77
640.179
669.836
696.55
720.235
740.886
758.567
773.374
785.41
794.762
801.507
805.675
807.29
806.388
805.006
804.328
804.175
804.367
804.779
805.337
805.993
806.693
807.414
808.127
808.817
809.466
810.063
810.627
811.194
811.901
812.787
813.978
815.149
817.143
819.602
824.735
835.758
227.101
237.738
268.874
302.747
338.705
376.3
414.989
454.152
493.13
531.266
567.945
602.636
634.909
664.449
691.06
714.652
735.213
752.799
767.501
779.41
788.602
795.142
799.04
800.31
798.963
797.166
796.158
795.758
795.763
796.032
796.481
797.049
797.673
798.322
798.966
799.59
800.178
800.722
801.248
801.799
802.516
803.393
804.576
805.781
807.719
809.972
814.943
826.307
225.326
235.181
265.967
299.505
335.131
372.404
410.786
449.664
488.382
526.287
562.764
597.281
629.405
658.818
685.321
708.816
729.287
746.782
761.385
773.178
782.226
788.579
792.232
793.179
791.416
789.23
787.912
787.281
787.108
787.243
787.589
788.074
788.624
789.203
789.779
790.339
790.873
791.373
791.874
792.421
793.146
794.016
795.205
796.453
798.358
800.429
805.251
817.018
223.492
232.535
262.962
296.154
331.438
368.376
406.439
445.018
483.462
521.121
557.381
591.711
623.674
652.951
679.337
702.732
723.112
740.52
755.032
766.722
775.641
781.829
785.258
785.912
783.763
781.215
779.609
778.76
778.423
778.434
778.684
779.091
779.57
780.081
780.591
781.094
781.58
782.047
782.538
783.09
783.816
784.687
785.898
787.202
789.097
791.014
795.71
807.918
221.605
229.806
259.864
292.702
327.632
364.225
401.955
440.221
478.376
515.774
551.803
585.93
617.721
646.851
673.114
696.403
716.692
734.018
748.447
760.046
768.855
774.899
778.132
778.521
776.018
773.137
771.265
770.216
769.727
769.622
769.785
770.12
770.533
770.979
771.427
771.878
772.326
772.773
773.266
773.824
774.551
775.435
776.683
778.061
779.96
781.767
786.34
799.012
219.672
227
256.681
289.156
323.723
359.958
397.344
435.282
473.134
510.255
546.037
579.948
611.553
640.526
666.658
689.838
710.036
727.283
741.639
753.161
761.879
767.802
770.866
771.021
768.197
765.015
762.9
761.668
761.04
760.83
760.915
761.185
761.538
761.924
762.317
762.725
763.146
763.586
764.088
764.645
765.38
766.291
767.591
769.059
770.983
772.707
777.157
790.311
217.698
224.125
253.42
285.524
319.718
355.585
392.612
430.21
467.743
504.572
540.092
573.773
605.178
633.984
659.976
683.043
703.151
720.324
734.616
746.076
754.721
760.549
763.472
763.426
760.319
756.867
754.534
753.135
752.382
752.08
752.097
752.31
752.609
752.943
753.286
753.661
754.067
754.51
755.02
755.579
756.333
757.282
758.656
760.222
762.199
763.851
768.19
781.818
215.691
221.186
250.086
281.812
315.625
351.113
387.771
425.013
462.213
498.734
533.977
567.413
598.607
627.233
653.08
676.03
696.047
713.151
727.39
738.803
747.397
753.154
755.968
755.755
752.401
748.713
746.187
744.642
743.778
743.394
743.355
743.522
743.775
744.064
744.369
744.721
745.123
745.571
746.087
746.656
747.439
748.441
749.905
751.588
753.628
755.233
759.449
773.537
213.657
218.19
246.689
278.029
311.452
346.551
382.827
419.702
456.553
492.752
527.702
560.879
591.848
620.285
645.978
668.807
688.735
705.776
719.972
731.355
739.918
745.632
748.367
748.023
744.463
740.574
737.88
736.207
735.248
734.797
734.713
734.845
735.063
735.316
735.591
735.928
736.329
736.786
737.316
737.904
738.728
739.799
741.364
743.19
745.297
746.877
750.951
765.49
211.602
215.142
243.233
274.182
307.207
341.908
377.791
414.285
450.775
486.637
521.279
554.182
584.914
613.153
638.684
661.39
681.229
698.213
712.377
723.746
732.302
737.999
740.689
740.251
736.525
732.471
729.637
727.855
726.817
726.312
726.196
726.3
726.491
726.718
726.972
727.301
727.71
728.185
728.737
729.355
730.23
731.385
733.069
735.054
737.244
738.798
742.719
757.711
209.532
212.05
239.726
270.278
302.899
337.192
372.672
408.773
444.887
480.398
514.719
547.335
577.818
605.847
631.212
653.791
673.543
690.476
704.62
715.992
724.563
730.273
732.951
732.457
728.607
724.424
721.477
719.608
718.507
717.961
717.822
717.908
718.08
718.29
718.531
718.863
719.291
719.792
720.377
721.034
721.976
723.226
725.058
727.212
729.506
731.022
734.808
750.247
207.453
208.92
236.175
266.324
298.535
332.413
367.479
403.176
438.903
474.049
508.035
540.351
570.573
598.385
623.576
646.026
665.694
682.583
696.719
708.112
716.72
722.471
725.172
724.661
720.731
716.456
713.425
711.49
710.342
709.769
709.615
709.694
709.858
710.06
710.299
710.643
711.1
711.638
712.264
712.975
713.993
715.359
717.351
719.705
722.096
723.593
727.226
743.118
205.372
205.756
232.585
262.328
294.122
327.578
362.222
397.505
432.831
467.601
501.24
533.244
563.196
590.782
615.794
638.114
657.699
674.551
688.691
700.122
708.792
714.613
717.371
716.882
712.916
708.588
705.502
703.522
702.344
701.756
701.598
701.679
701.845
702.05
702.297
702.665
703.161
703.746
704.427
705.203
706.309
707.812
709.984
712.562
715.052
716.528
720.007
736.363
203.294
202.565
228.964
258.297
289.67
322.696
356.91
391.769
426.686
461.067
494.347
526.029
555.701
583.054
607.883
630.072
649.578
666.401
680.558
692.045
700.799
706.719
709.57
709.143
705.186
700.844
697.73
695.728
694.538
693.946
693.796
693.891
694.07
694.288
694.553
694.956
695.502
696.145
696.891
697.743
698.955
700.611
702.987
705.812
708.407
709.855
713.176
730.015
201.226
199.353
225.317
254.238
285.185
317.777
351.554
385.98
420.477
454.46
487.372
518.722
548.106
575.22
599.863
621.92
641.35
658.152
672.338
683.899
692.761
698.809
701.787
701.463
697.56
693.243
690.131
688.129
686.945
686.363
686.23
686.348
686.553
686.796
687.091
687.538
688.145
688.859
689.68
690.626
691.951
693.79
696.386
699.492
702.184
703.605
706.75
724.099
199.172
196.126
221.65
250.156
280.675
312.828
346.162
380.149
414.219
447.795
480.329
511.34
540.429
567.299
591.754
613.68
633.039
649.828
664.056
675.707
684.701
690.904
694.045
693.865
690.061
685.807
682.728
680.748
679.588
679.029
678.925
679.078
679.32
679.6
679.935
680.438
681.116
681.909
682.82
683.87
685.328
687.366
690.218
693.614
696.428
697.785
700.742
718.638
197.138
192.887
217.969
246.059
276.147
307.858
340.744
374.286
407.922
441.084
473.235
503.9
532.689
559.312
583.576
605.374
624.666
641.45
655.732
667.492
676.638
683.026
686.364
686.366
682.708
678.557
675.54
673.606
672.488
671.965
671.901
672.1
672.392
672.721
673.107
673.676
674.434
675.319
676.331
677.499
679.108
681.367
684.505
688.217
691.165
692.426
695.215
713.686
195.13
189.643
214.279
241.953
271.609
302.875
335.31
368.402
401.599
434.343
466.104
496.419
524.905
551.279
575.353
597.024
616.255
633.043
647.392
659.277
668.597
675.196
678.764
678.99
675.522
671.514
668.587
666.723
665.666
665.196
665.181
665.438
665.792
666.182
666.629
667.274
668.121
669.111
670.233
671.537
673.313
675.819
679.273
683.326
686.412
687.557
690.132
709.224
193.152
186.399
210.586
237.843
267.066
297.886
329.868
362.508
395.262
427.584
458.953
488.915
517.096
543.221
567.107
588.655
607.83
624.631
639.058
651.084
660.6
667.435
671.266
671.753
668.522
664.694
661.889
660.118
659.142
658.739
658.785
659.11
659.539
660.001
660.522
661.25
662.197
663.3
664.551
665.999
667.968
670.739
674.548
678.96
682.205
683.18
685.584
705.337
191.209
183.158
206.894
233.736
262.527
292.9
324.428
356.614
388.925
420.823
451.798
481.406
509.283
535.16
558.86
580.289
599.415
616.238
630.756
642.937
652.668
659.766
663.89
664.678
661.727
658.119
655.465
653.81
652.935
652.618
652.734
653.139
653.655
654.2
654.805
655.626
656.68
657.909
659.297
660.911
663.085
666.161
670.339
675.166
678.537
679.357
681.531
701.986
189.307
179.926
203.208
229.635
257.995
287.924
318.998
350.731
382.598
414.072
444.655
473.911
501.486
527.117
550.636
571.952
591.035
607.888
622.508
634.86
644.824
652.207
656.656
657.781
655.155
651.803
649.329
647.814
647.06
646.849
647.045
647.539
648.154
648.796
649.495
650.418
651.586
652.952
654.491
656.289
658.688
662.102
666.679
671.957
675.446
676.097
678.015
699.202
187.449
176.707
199.533
225.548
253.479
282.963
313.586
344.867
376.293
407.347
437.54
466.447
493.723
519.114
542.457
563.666
582.715
599.608
614.34
626.875
637.091
644.782
649.583
651.081
648.822
645.764
643.5
642.148
641.536
641.447
641.739
642.332
643.056
643.806
644.611
645.642
646.935
648.447
650.151
652.149
654.796
658.579
663.582
669.346
672.937
673.424
675.075
697.018
185.64
173.504
195.872
221.477
248.982
278.026
308.2
339.034
370.023
400.66
430.468
459.032
486.016
511.173
534.346
555.456
574.479
591.419
606.275
619.007
629.489
637.508
642.689
644.593
642.744
640.016
637.99
636.824
636.373
636.424
636.829
637.531
638.375
639.246
640.167
641.317
642.739
644.412
646.29
648.514
651.423
655.616
661.067
667.351
671.024
671.366
672.773
695.483
183.884
170.322
192.23
217.429
244.511
273.119
302.849
333.24
363.797
394.024
423.454
451.683
478.382
503.313
526.326
547.345
566.35
583.348
598.336
611.276
622.039
630.406
635.991
638.334
636.935
634.572
632.813
631.857
631.585
631.798
632.335
633.154
634.127
635.13
636.179
637.454
639.015
640.856
642.926
645.388
648.592
653.212
659.16
665.956
669.717
669.916
671.055
694.581
182.184
167.165
188.61
213.405
240.07
268.246
297.538
327.493
357.626
387.451
416.513
444.415
470.84
495.556
518.418
539.356
558.351
575.415
590.546
603.705
614.763
623.493
629.506
632.319
631.409
629.445
627.98
627.256
627.184
627.576
628.269
629.211
630.323
631.47
632.658
634.068
635.775
637.795
640.071
642.789
646.313
651.388
657.859
665.179
669.048
669.033
670.119
694.55
180.544
164.034
185.014
209.411
235.663
263.413
292.274
321.801
351.519
380.953
409.657
437.246
463.408
487.92
510.642
531.509
550.505
567.645
582.927
596.315
607.678
616.789
623.249
626.561
626.177
624.646
623.503
623.033
623.179
623.771
624.64
625.718
626.976
628.278
629.617
631.172
633.033
635.243
637.74
640.731
644.599
650.152
657.185
665.042
669
668.773
669.676
695.129
178.968
160.935
181.447
205.45
231.294
258.626
287.064
316.172
345.486
374.541
402.9
430.188
456.101
480.422
503.017
523.824
542.832
560.056
575.499
589.124
600.804
610.308
617.235
621.073
621.25
620.183
619.389
619.196
619.578
620.385
621.449
622.683
624.094
625.563
627.065
628.774
630.803
633.211
635.949
639.229
643.474
649.529
657.16
665.568
669.653
669.078
669.964
696.629
177.459
157.869
177.911
201.524
226.967
253.888
281.911
310.612
339.535
368.224
396.254
423.256
448.935
473.081
495.563
516.323
535.352
552.671
568.282
582.152
594.157
604.067
611.478
615.867
616.639
616.067
615.647
615.751
616.388
617.428
618.706
620.12
621.69
623.333
625.011
626.889
629.095
631.715
634.71
638.304
642.956
649.545
657.81
666.804
671.004
670.016
670.761
698.84
176.019
154.84
174.408
197.636
222.685
249.203
276.822
305.127
333.672
362.011
389.727
416.461
441.924
465.91
488.294
509.02
528.083
545.505
561.293
575.417
587.755
598.08
605.99
610.951
612.35
612.302
612.282
612.705
613.613
614.901
616.413
618.035
619.768
621.595
623.463
625.523
627.92
630.767
634.042
637.975
643.068
650.224
659.17
668.784
673.107
671.593
672.104
701.821
174.651
151.849
170.941
193.788
218.451
244.574
271.801
299.723
327.904
355.91
383.331
409.815
435.08
458.924
481.226
501.933
521.042
538.578
554.55
568.933
581.612
592.361
600.784
606.338
608.392
608.896
609.3
610.061
611.258
612.809
614.573
616.423
618.338
620.355
622.426
624.683
627.288
630.377
633.955
638.256
643.831
651.586
661.254
671.526
675.968
673.837
674.005
705.554
173.357
148.901
167.51
189.983
214.266
240.004
266.85
294.402
322.237
349.927
377.072
403.326
428.413
452.135
474.373
495.076
514.244
531.903
548.067
562.717
575.741
586.922
595.868
602.032
604.77
605.852
606.703
607.823
609.324
611.152
613.18
615.279
617.403
619.615
621.902
624.373
627.202
630.554
634.459
639.162
645.256
653.651
664.083
675.054
679.619
676.782
676.482
709.944
172.141
145.996
164.119
186.222
210.132
235.496
261.972
289.17
316.675
344.068
370.957
397.003
421.933
445.553
467.744
488.461
507.7
525.494
541.859
556.78
570.156
581.775
591.252
598.044
601.49
603.173
604.495
605.992
607.813
609.932
612.238
614.606
616.968
619.38
621.894
624.595
627.668
631.3
635.558
640.694
647.351
656.415
667.657
679.347
684.036
680.445
679.392
714.738
171.003
143.137
160.768
182.506
206.052
231.051
257.169
284.028
311.22
338.336
364.991
390.85
415.646
439.185
461.351
482.097
501.423
519.363
535.937
551.136
564.867
576.929
586.945
594.377
598.553
600.862
602.675
604.567
606.723
609.144
611.74
614.396
617.022
619.65
622.399
625.348
628.685
632.617
637.252
642.859
650.119
659.889
671.971
684.407
689.273
684.802
683.048
720.211
169.945
140.326
157.459
178.836
202.026
226.67
252.443
278.978
305.875
332.734
359.177
384.874
409.558
433.038
455.199
475.994
495.422
513.519
530.31
545.793
559.884
572.392
582.954
591.038
595.964
598.919
601.243
603.548
606.053
608.79
611.686
614.64
617.552
620.427
623.418
626.629
630.25
634.502
639.54
645.653
653.557
664.07
677.015
690.215
695.225
689.94
687.151
725.889
168.969
137.565
154.192
175.214
198.055
222.353
247.795
274.021
300.642
327.265
353.518
379.075
403.672
427.117
449.295
470.156
489.703
507.97
524.988
540.76
555.214
568.172
579.284
588.028
593.722
597.342
600.198
602.932
605.799
608.86
612.067
615.33
618.552
621.708
624.944
628.434
632.357
636.952
642.415
649.076
657.662
668.96
682.775
696.762
701.949
695.807
692.117
732.236
168.076
134.855
150.969
171.64
194.139
218.102
243.224
269.157
295.519
321.927
348.014
373.455
397.989
421.424
443.64
464.589
484.271
502.721
519.976
536.043
550.864
564.274
575.94
585.352
591.829
596.132
599.536
602.716
605.957
609.354
612.879
616.461
620.009
623.473
626.974
630.754
634.999
639.959
645.873
653.121
662.427
674.552
689.246
704.046
709.369
702.485
697.634
738.83
167.267
132.199
147.79
168.113
190.278
213.915
238.731
264.385
290.507
316.721
342.663
368.014
392.51
415.958
438.237
459.294
479.128
497.777
515.277
531.648
546.839
560.703
572.924
583.01
590.281
595.283
599.253
602.892
606.519
610.26
614.112
618.022
621.906
625.703
629.501
633.582
638.167
643.514
649.904
657.779
667.846
680.839
696.418
712.057
717.545
709.904
703.943
745.928
166.543
129.598
144.656
164.635
186.472
209.793
234.313
259.704
285.604
311.644
337.465
362.749
387.232
410.719
433.083
454.27
474.276
493.137
510.896
527.576
543.142
557.461
570.239
581.002
589.079
594.793
599.344
603.456
607.48
611.573
615.758
620.001
624.232
628.386
632.518
636.907
641.849
647.606
654.499
663.036
673.912
687.806
704.299
720.814
726.478
718.132
710.801
753.206
165.903
127.053
141.567
161.205
182.72
205.733
229.97
255.111
280.806
306.692
332.414
357.656
382.151
405.701
428.176
449.514
469.711
488.801
506.83
523.828
539.773
554.549
567.884
579.326
588.216
594.655
599.801
604.398
608.829
613.28
617.805
622.387
626.972
631.501
635.995
640.714
646.029
652.22
659.644
668.877
680.613
695.447
712.879
730.283
736.201
727.107
718.435
760.922
165.35
124.567
138.523
157.823
179.022
201.736
225.699
250.605
276.111
301.861
327.506
352.729
377.262
400.9
423.509
445.023
465.43
484.766
503.078
520.402
536.731
551.966
565.858
577.981
587.69
594.862
600.615
605.71
610.556
615.374
620.24
625.166
630.111
635.026
639.91
644.989
650.692
657.335
665.318
675.279
687.927
703.737
722.146
740.451
746.716
736.858
726.722
768.982
164.881
122.14
135.525
154.488
175.378
197.799
221.498
246.18
271.513
297.146
322.734
347.961
372.555
396.307
419.075
440.787
461.427
481.026
499.634
517.296
534.014
549.709
564.158
576.96
587.491
595.406
601.777
607.38
612.65
617.838
623.05
628.321
633.631
638.94
644.241
649.716
655.816
662.932
671.498
682.219
695.826
712.661
732.063
751.297
757.982
747.392
735.716
777.417
164.498
119.774
132.574
151.2
171.785
193.92
217.365
241.835
267.007
292.54
318.092
343.344
368.023
391.913
414.866
436.799
457.692
477.574
496.494
514.503
531.617
547.774
562.779
576.259
587.613
596.276
603.276
609.396
615.097
620.66
626.22
631.838
637.514
643.223
648.96
654.863
661.38
668.988
678.159
689.671
704.28
722.194
742.612
762.813
770.001
758.713
745.427
786.32
164.199
117.47
129.669
147.959
168.242
190.098
213.296
237.563
262.589
288.037
313.57
338.868
363.655
387.707
410.868
433.046
454.215
474.398
493.646
512.014
529.531
546.155
561.714
575.869
588.045
597.461
605.098
611.743
617.882
623.824
629.733
635.697
641.74
647.852
654.039
660.398
667.358
675.475
685.272
697.604
713.258
732.309
753.774
775.009
782.796
770.841
755.837
795.728
163.985
115.23
126.81
144.764
164.749
186.33
209.287
233.361
258.251
283.628
309.159
334.523
359.439
383.677
407.069
429.516
450.984
471.488
491.081
509.82
527.749
544.841
560.955
575.782
588.777
598.949
607.229
614.407
620.99
627.313
633.571
639.88
646.288
652.806
659.448
666.292
673.724
682.361
692.801
705.976
722.709
742.966
765.509
787.883
796.369
783.806
766.959
805.763
163.853
113.055
123.998
141.614
161.304
182.614
205.336
229.224
253.987
279.306
304.849
330.296
355.362
379.806
403.454
426.194
447.982
468.828
488.783
507.908
526.257
543.823
560.49
575.985
589.795
600.722
609.651
617.369
624.401
631.108
637.715
644.365
651.135
658.056
665.158
672.51
680.439
689.61
700.703
714.737
732.572
754.1
777.774
801.408
810.729
797.614
778.818
816.532
163.804
110.947
121.232
138.509
157.906
178.948
201.44
225.147
249.791
275.061
300.629
326.176
351.409
376.081
400.006
423.062
445.193
466.403
486.738
506.263
525.043
543.087
560.308
576.466
591.084
602.768
612.349
620.613
628.097
635.19
642.144
649.131
656.258
663.58
671.14
679.014
687.467
697.184
708.936
723.831
742.78
765.632
790.509
815.567
825.892
812.285
791.336
827.901
163.835
108.907
118.514
135.448
154.553
175.33
197.593
221.124
245.655
270.884
296.488
322.148
347.565
372.484
396.707
420.101
442.598
464.192
484.927
504.868
524.089
542.617
560.392
577.209
592.628
605.065
615.302
624.115
632.056
639.536
646.835
654.155
661.632
669.347
677.365
685.769
694.776
705.052
717.465
733.217
753.28
777.496
803.652
830.297
841.86
827.876
804.453
839.839
163.945
106.937
115.843
132.431
151.244
171.757
193.794
217.151
241.573
266.767
292.416
318.199
343.814
368.998
393.539
417.292
440.176
462.177
483.33
503.703
523.378
542.396
560.727
578.197
594.408
607.595
618.49
627.855
636.256
644.125
651.766
659.412
667.231
675.333
683.801
692.737
702.328
713.175
726.252
742.847
764.016
789.625
817.143
845.487
858.501
844.324
818.413
852.996
164.133
105.037
113.22
129.457
147.978
168.227
190.039
213.223
237.538
262.701
288.4
314.315
340.141
365.604
390.481
414.613
437.906
460.333
481.925
502.747
522.888
542.405
561.291
579.41
596.403
610.336
621.888
631.809
640.673
648.931
656.912
664.878
673.029
681.506
690.418
699.881
710.071
721.511
735.24
752.644
774.885
801.868
830.84
860.906
875.742
861.513
833.135
867.11
164.397
103.21
110.644
126.525
144.754
164.739
186.324
209.335
233.543
258.676
284.428
310.483
336.528
362.283
387.513
412.042
435.764
458.639
480.689
501.977
522.598
542.621
562.065
580.827
598.592
613.265
625.474
635.953
645.282
653.929
662.248
670.528
679
687.84
697.181
707.162
717.958
730.028
744.375
762.545
785.798
814.126
844.618
876.464
893.386
879.322
848.735
882.656
164.734
101.456
108.117
123.635
141.571
161.291
182.648
205.482
229.581
254.684
280.491
306.687
332.959
359.016
384.612
409.555
433.725
457.067
479.595
501.367
522.481
543.019
563.024
582.425
600.95
616.357
629.221
640.259
650.055
659.092
667.746
676.332
685.115
694.302
704.056
714.542
725.936
738.649
753.609
772.47
796.65
826.24
858.307
891.9
911.323
897.626
865.062
899.162
165.143
99.778
105.64
120.788
138.428
157.88
179.006
201.661
225.648
250.716
276.576
302.915
329.418
355.785
381.757
407.129
431.764
455.592
478.617
500.891
522.512
543.575
564.143
584.18
603.453
619.585
633.103
644.7
654.965
664.393
673.379
682.266
691.346
700.865
711.013
721.982
733.958
747.321
762.901
782.335
807.32
838.053
871.676
907.074
929.367
916.369
882.105
916.529
165.621
98.1762
103.212
117.982
135.324
154.506
175.397
197.868
221.736
246.765
272.674
299.154
325.887
352.568
378.926
404.739
429.854
454.187
477.726
500.518
522.663
544.26
565.395
586.062
606.072
622.922
637.09
649.247
659.981
669.801
679.118
688.299
697.667
707.498
718.02
729.447
741.986
755.993
772.211
792.138
817.764
849.469
884.567
921.699
947.31
935.444
899.871
934.556
166.166
96.6522
100.834
115.217
132.259
151.168
171.819
194.099
217.842
242.824
268.775
295.39
322.352
349.349
376.098
402.362
427.97
452.822
476.894
500.221
522.903
545.045
566.751
588.045
608.779
626.338
641.153
653.869
665.075
675.288
684.933
694.403
704.046
714.173
725.047
736.906
749.983
764.623
781.49
801.909
827.942
860.432
896.825
935.56
964.81
954.57
918.409
953.648
166.775
95.2074
98.5083
112.494
129.232
147.863
168.27
190.353
213.961
238.886
264.869
291.613
318.798
346.109
373.25
399.971
426.084
451.469
476.089
499.968
523.2
545.899
568.18
590.097
611.542
629.803
645.26
658.536
670.214
680.82
690.794
700.547
710.456
720.863
732.061
744.328
757.912
773.164
790.686
811.616
837.923
870.907
908.368
948.36
981.511
973.357
937.445
973.587
167.446
93.843
96.2345
109.813
126.242
144.593
164.748
186.625
210.089
234.946
260.95
287.81
315.211
342.83
370.363
397.545
424.169
450.1
475.281
499.727
523.524
546.789
569.651
592.188
614.332
633.285
649.381
663.214
675.367
686.367
696.669
706.702
716.867
727.535
739.038
751.672
765.74
781.561
799.742
821.2
847.773
880.851
919.112
959.906
997.085
991.557
956.647
994.193
168.177
92.5602
94.014
107.173
123.29
141.355
161.253
182.915
206.222
230.999
257.009
283.973
311.577
339.495
367.416
395.059
422.201
448.686
474.44
499.466
523.841
547.682
571.129
594.284
617.115
636.75
653.48
667.872
680.5
691.897
702.526
712.835
723.247
734.161
745.94
758.915
773.419
789.787
808.584
830.624
857.462
890.522
929.069
970.215
1011.17
1009.08
975.666
1015.19
168.964
91.36
91.848
104.575
120.376
138.151
157.784
179.22
202.359
227.04
253.042
280.093
307.885
336.091
364.392
392.492
420.152
447.197
473.535
499.152
524.117
548.544
572.582
596.353
619.858
640.168
657.527
672.475
685.581
697.376
708.334
718.917
729.567
740.71
752.741
766.023
780.923
797.794
817.175
839.804
866.997
900.023
938.598
979.345
1023.58
1025.43
994.311
1036.36
169.805
90.2435
89.7377
102.019
117.498
134.979
154.339
175.54
198.498
223.066
249.041
276.161
304.124
332.603
361.271
389.822
417.998
445.607
472.536
498.754
524.319
549.34
573.973
598.357
622.527
643.502
661.486
676.991
690.577
702.773
714.06
724.915
735.798
747.158
759.416
772.973
788.226
805.556
825.476
848.679
876.295
909.401
947.917
987.828
1034.29
1040.46
1012.56
1057.2
170.698
89.2114
87.6844
99.5062
114.658
131.839
150.92
171.875
194.636
219.076
245.004
272.172
300.286
329.019
358.04
387.031
415.717
443.888
471.412
498.238
524.413
550.037
575.269
600.265
625.087
646.72
665.325
681.386
695.453
708.053
719.673
730.8
741.913
753.478
765.946
779.747
795.313
813.053
833.469
857.211
885.265
918.563
957.126
996.073
1043.85
1054.12
1029.93
1077.37
171.639
88.2646
85.6898
97.0366
111.856
128.732
147.527
168.225
190.776
215.07
240.931
268.127
296.369
325.337
354.693
384.111
413.301
442.032
470.153
497.595
524.387
550.622
576.46
602.066
627.531
649.814
669.037
685.656
700.208
713.217
725.173
736.575
747.915
759.68
772.339
786.359
802.197
820.299
841.161
865.401
893.895
927.444
966.206
1004.45
1052.9
1067.01
1046.45
1096.32
172.628
87.4035
83.7552
94.6109
109.093
125.659
144.16
164.592
186.918
211.047
236.821
264.021
292.368
321.547
351.219
381.048
410.731
440.018
468.736
496.797
524.213
551.066
577.513
603.73
629.83
652.757
672.595
689.771
704.812
718.235
730.533
742.213
753.781
765.736
778.578
792.787
808.862
827.271
848.53
873.224
902.145
935.986
975.051
1012.9
1061.78
1079.41
1062.12
1114.58
173.66
86.6285
81.8824
92.2298
106.367
122.62
140.821
160.974
183.061
207.008
232.673
259.851
288.279
317.644
347.608
377.829
407.989
437.822
467.134
495.816
523.86
551.338
578.399
605.226
631.95
655.515
675.967
693.704
709.238
723.081
735.726
747.689
759.485
771.632
784.638
799.022
815.292
833.967
855.556
880.661
909.967
944.107
983.462
1021.08
1070.22
1091.1
1076.84
1131.97
174.734
85.9396
80.0728
89.8941
103.681
119.615
137.508
157.373
179.207
202.952
228.485
255.618
284.097
313.621
343.851
374.442
405.062
435.428
465.327
494.627
523.303
551.408
579.087
606.523
633.866
658.063
679.127
697.424
713.457
727.726
740.726
752.978
765.006
777.339
790.509
805.042
821.481
840.371
862.244
887.692
917.364
951.77
991.418
1028.87
1078.13
1101.89
1090.48
1147.8
175.848
85.3369
78.3283
87.6045
101.033
116.645
134.224
153.791
175.357
198.881
224.259
251.319
279.822
309.474
339.942
370.875
401.934
432.818
463.294
493.208
522.514
551.25
579.547
607.591
635.544
660.369
682.042
700.905
717.443
732.146
745.508
758.056
770.32
782.844
796.165
810.838
827.42
846.482
868.588
894.32
924.328
959
998.923
1036.32
1085.67
1112.1
1103.47
1162.6
176.999
84.8199
76.6506
85.362
98.4254
113.709
130.968
150.227
171.511
194.796
219.996
246.956
275.451
305.201
335.876
367.124
398.596
429.978
461.017
491.537
521.471
550.836
579.753
608.405
636.961
662.409
684.692
704.121
721.169
736.315
750.048
762.9
775.407
788.121
801.597
816.394
833.098
852.295
874.579
900.546
930.836
965.778
1005.94
1043.39
1092.74
1121.79
1115.64
1175.46
178.185
84.3881
75.0414
83.1675
95.8574
110.809
127.742
146.683
167.671
190.699
215.697
242.529
270.987
300.801
331.649
363.18
395.037
426.895
458.479
489.594
520.149
550.141
579.678
608.934
638.087
664.153
687.045
707.046
724.613
740.209
754.324
767.489
780.246
793.158
806.781
821.701
838.502
857.801
880.205
906.342
936.846
972.018
1012.4
1049.99
1099.22
1130.59
1126.62
1186.04
179.405
84.0407
73.5026
81.0223
93.3299
107.945
124.546
143.161
163.84
186.592
211.365
238.042
266.43
296.274
327.261
359.04
391.252
423.558
455.667
487.363
518.53
549.145
579.299
609.158
638.899
665.58
689.082
709.657
727.749
743.807
758.313
771.802
784.818
797.929
811.71
826.738
843.627
862.989
885.461
911.688
942.325
977.657
1018.18
1055.93
1104.84
1138.32
1136.57
1194.34
180.655
83.7766
72.0359
78.9274
90.8433
105.118
121.382
139.662
160.019
182.477
207.003
233.497
261.783
291.622
322.71
354.702
387.235
419.96
452.57
484.827
516.595
547.826
578.593
609.049
639.374
666.665
690.776
711.933
730.557
747.087
761.997
775.821
789.105
802.426
816.358
831.502
848.457
867.858
890.348
916.591
947.268
982.647
1023.17
1061.04
1109.46
1144.91
1145.61
1200.78
181.936
83.5943
70.6432
76.8844
88.3984
102.328
118.25
136.187
156.21
178.358
202.615
228.897
257.05
286.848
318
350.166
382.983
416.095
449.179
481.977
514.329
546.166
577.54
608.589
639.49
667.389
692.11
713.85
733.017
750.029
765.355
779.525
793.09
806.626
820.723
835.971
852.994
872.415
894.886
921.087
951.717
987.035
1027.42
1065.36
1113.09
1150.33
1153.78
1205.21
183.245
83.4923
69.3263
74.8945
85.9957
99.5756
115.151
132.738
152.416
174.237
198.202
224.247
252.234
281.955
313.131
345.432
378.496
411.958
445.485
478.8
511.719
544.149
576.121
607.758
639.227
667.729
693.061
715.392
735.109
752.616
768.372
782.902
796.758
810.523
824.781
840.149
857.234
876.667
899.112
925.243
955.795
991.01
1031.21
1069.24
1116.19
1155.2
1161.51
1207.94
184.58
83.4687
68.0867
72.9594
83.636
96.8613
112.086
129.316
148.639
170.118
193.771
219.551
247.34
276.948
308.109
340.504
373.773
407.549
441.486
475.289
508.754
541.762
574.322
606.538
638.568
667.67
693.614
716.54
736.816
754.83
771.028
785.933
800.093
814.095
828.534
844.016
861.171
880.63
903.046
929.128
959.604
994.766
1034.81