/*--------------------------------*- C++ -*----------------------------------*\
| =========                 |                                                 |
| \\      /  F ield         | OpenFOAM: The Open Source CFD Toolbox           |
|  \\    /   O peration     | Version:  2406                                  |
|   \\  /    A nd           | Website:  www.openfoam.com                      |
|    \\/     M anipulation  |                                                 |
\*---------------------------------------------------------------------------*/
FoamFile
{
    version     2.0;
    format      ascii;
    arch        "LSB;label=32;scalar=64";
    class       volScalarField;
    location    "10";
    object      p;
}
// * * * * * * * * * * * * * * * * * * * * * * * * * * * * * * * * * * * * * //

dimensions      [0 2 -2 0 0 0 0];

internalField   nonuniform List<scalar> 
38016
(
-0.00705093
-0.329553
-0.327273
-1.20384
-1.84041
-2.68019
-3.97105
-5.59868
-8.48219
-12.2621
-16.7712
-22.9001
-29.9763
-38.4487
-47.4219
-57.6978
-66.524
-74.7973
-81.6584
-86.9265
-92.0945
-106.37
-109.957
-141.349
-166.037
-254.058
-330.11
-424.538
-506.354
-578.643
-638.359
-683.99
-716.22
-735.286
-742.81
-740.281
-729.455
-711.312
-686.859
-657.202
-623.384
-586.307
-545.911
-505.703
-455.124
-399.946
-352.553
-309.023
-0.00490011
-0.323174
-0.314969
-1.19692
-1.83281
-2.67698
-3.97087
-5.61285
-8.50982
-12.3093
-16.8566
-23.0291
-30.1553
-38.7044
-47.7201
-58.0535
-66.8683
-75.1677
-82.0214
-87.2514
-92.4267
-107.078
-109.464
-141.717
-165.406
-255.556
-332.266
-428.886
-512.773
-586.834
-648.177
-695.296
-728.796
-749.136
-757.746
-756.245
-746.405
-729.226
-705.854
-677.35
-644.711
-608.872
-569.837
-530.961
-481.864
-429.99
-386.622
-347.863
-0.00358079
-0.317373
-0.303152
-1.19053
-1.82558
-2.67434
-3.9712
-5.62792
-8.53834
-12.3576
-16.9439
-23.1614
-30.3395
-38.9691
-48.0321
-58.4289
-67.2432
-75.5814
-82.4467
-87.6602
-92.8876
-107.869
-109.246
-142.194
-165.299
-257.253
-334.792
-433.354
-519.27
-595.027
-657.915
-706.447
-741.122
-762.63
-772.205
-771.599
-762.577
-746.188
-723.667
-696.069
-664.355
-629.49
-591.657
-553.758
-506.811
-459.26
-420.324
-386.085
-0.00180437
-0.311328
-0.291072
-1.18393
-1.81811
-2.6715
-3.97135
-5.64303
-8.56675
-12.4056
-17.0306
-23.2926
-30.5217
-39.2301
-48.338
-58.7933
-67.6027
-75.9735
-82.8447
-88.0357
-93.3232
-108.569
-109.045
-142.535
-165.187
-258.808
-337.364
-437.744
-525.684
-603.085
-667.443
-717.297
-753.048
-775.596
-786.008
-786.165
-777.812
-762.076
-740.24
-713.39
-682.497
-648.561
-612.009
-575.288
-531.444
-488.764
-454.473
-424.688
-0.00034548
-0.30563
-0.279287
-1.1776
-1.81086
-2.66897
-3.97181
-5.65862
-8.59541
-12.4537
-17.117
-23.4229
-30.7026
-39.4882
-48.6396
-59.1495
-67.9523
-76.3517
-83.2267
-88.3914
-93.7501
-109.182
-108.888
-142.702
-165.09
-260.094
-339.833
-441.837
-531.762
-610.75
-676.517
-727.629
-764.391
-787.887
-799.059
-799.897
-792.126
-776.975
-755.752
-729.612
-699.577
-666.736
-631.769
-596.873
-556.898
-519.292
-489.649
-464.225
0.00140541
-0.29974
-0.267275
-1.17108
-1.80333
-2.66617
-3.97197
-5.67409
-8.62377
-12.5013
-17.2029
-23.5525
-30.8826
-39.7446
-48.9393
-59.5012
-68.2977
-76.7245
-83.604
-88.7443
-94.1914
-109.741
-108.811
-142.761
-165.073
-261.213
-342.284
-445.751
-537.624
-618.151
-685.268
-737.574
-775.284
-799.635
-811.496
-812.939
-805.689
-791.086
-770.469
-745.092
-716.077
-684.648
-651.723
-619.384
-583.733
-551.201
-526.095
-504.916
0.00294084
-0.294128
-0.255496
-1.16479
-1.79599
-2.66367
-3.97244
-5.69009
-8.65251
-12.5491
-17.2891
-23.6822
-31.0629
-40.0006
-49.2389
-59.8507
-68.6419
-77.0954
-83.9809
-89.0987
-94.6521
-110.251
-108.816
-142.721
-165.133
-262.174
-344.722
-449.506
-543.291
-625.31
-693.723
-747.158
-785.753
-810.865
-823.352
-825.339
-818.574
-804.517
-784.561
-760.085
-732.348
-702.727
-672.324
-643.117
-611.961
-584.319
-563.495
-546.328
0.00474843
-0.288349
-0.243517
-1.15832
-1.7884
-2.66092
-3.97266
-5.70601
-8.68105
-12.5967
-17.3751
-23.8116
-31.2433
-40.2565
-49.5393
-60.1993
-68.9875
-77.4682
-84.3624
-89.4622
-95.1413
-110.725
-108.912
-142.593
-165.27
-262.978
-347.129
-453.093
-548.743
-632.207
-701.858
-756.354
-795.774
-821.56
-834.618
-837.101
-830.815
-817.339
-798.157
-774.787
-748.653
-721.258
-693.786
-668.055
-641.337
-618.254
-601.34
-587.823
0.00635561
-0.282842
-0.231763
-1.15206
-1.78099
-2.65847
-3.97319
-5.72248
-8.71006
-12.6448
-17.4618
-23.9418
-31.4253
-40.5139
-49.843
-60.5505
-69.3394
-77.8491
-84.7566
-89.8443
-95.6708
-111.177
-109.114
-142.4
-165.5
-263.647
-349.517
-456.534
-553.994
-638.854
-709.684
-765.173
-805.358
-831.739
-845.324
-848.277
-842.49
-829.675
-811.433
-789.428
-765.241
-740.436
-716.169
-694.023
-671.499
-652.529
-639.063
-628.723
0.00824065
-0.277174
-0.219812
-1.14563
-1.77334
-2.65578
-3.9735
-5.7389
-8.73898
-12.6927
-17.5487
-24.0726
-31.609
-40.7736
-50.1517
-60.9069
-69.7017
-78.244
-85.1714
-90.2569
-96.2548
-111.624
-109.438
-142.165
-165.836
-264.203
-351.888
-459.847
-559.053
-645.261
-717.209
-773.623
-814.516
-841.423
-855.5
-858.922
-853.687
-841.652
-824.556
-804.206
-782.286
-760.329
-739.372
-720.713
-702.013
-686.631
-676.102
-668.401
0.00993302
-0.271778
-0.208086
-1.13941
-1.76587
-2.65339
-3.97415
-5.75591
-8.76848
-12.7414
-17.6368
-24.2051
-31.7961
-41.0377
-50.4685
-61.2728
-70.0807
-78.6613
-85.6177
-90.7127
-96.9079
-112.085
-109.902
-141.913
-166.297
-264.67
-354.252
-463.051
-563.931
-651.438
-724.443
-781.716
-823.261
-850.643
-865.193
-869.107
-864.511
-853.414
-837.698
-819.281
-799.877
-780.894
-763.186
-747.769
-732.436
-720.096
-711.978
-706.367
0.0119102
-0.266224
-0.196163
-1.13301
-1.75817
-2.65078
-3.97461
-5.77292
-8.79804
-12.7903
-17.7259
-24.3393
-31.987
-41.3074
-50.7959
-61.6521
-70.4826
-79.1093
-86.1063
-91.2274
-97.6487
-112.583
-110.528
-141.675
-166.9
-265.077
-356.614
-466.169
-568.642
-657.398
-731.398
-789.468
-831.619
-859.441
-874.46
-878.915
-875.076
-865.101
-851.002
-834.757
-818.016
-801.997
-787.346
-774.838
-762.382
-752.555
-746.349
-742.338
0.0137021
-0.260944
-0.184468
-1.12683
-1.75065
-2.64848
-3.97544
-5.79056
-8.82833
-12.8402
-17.8168
-24.4764
-32.1836
-41.5853
-51.138
-62.0505
-70.9154
-79.5989
-86.6515
-91.8179
-98.4961
-113.143
-111.337
-141.483
-167.666
-265.452
-358.985
-469.223
-573.202
-663.157
-738.095
-796.905
-839.621
-867.868
-883.372
-888.447
-885.507
-876.846
-864.581
-850.675
-836.633
-823.453
-811.585
-801.607
-791.565
-783.776
-779.068
-776.262
0.0157869
-0.255508
-0.172576
-1.12046
-1.74292
-2.64596
-3.97612
-5.80826
-8.85885
-12.8907
-17.9094
-24.6167
-32.3867
-41.8732
-51.498
-62.4733
-71.3873
-80.1411
-87.2676
-92.5045
-99.4725
-113.794
-112.355
-141.376
-168.615
-265.832
-361.373
-472.237
-577.628
-668.733
-744.553
-804.054
-847.308
-875.984
-892.01
-897.804
-895.919
-888.763
-878.507
-867.019
-855.611
-845.06
-835.662
-827.841
-819.805
-813.665
-810.138
-808.251
0.0176948
-0.250347
-0.160914
-1.1143
-1.73538
-2.64378
-3.97721
-5.82666
-8.89029
-12.9425
-18.0048
-24.7615
-32.5986
-42.1744
-51.8812
-62.9277
-71.9085
-80.75
-87.9727
-93.3085
-100.601
-114.566
-113.608
-141.392
-169.77
-266.25
-363.79
-475.237
-581.941
-674.148
-750.801
-810.954
-854.729
-883.858
-900.466
-907.096
-906.427
-900.944
-892.807
-883.729
-874.813
-866.637
-859.385
-853.387
-847.011
-842.223
-839.65
-838.489
0.0199039
-0.245032
-0.149055
-1.10796
-1.72762
-2.64138
-3.97819
-5.8452
-8.92217
-12.9955
-18.1028
-24.9113
-32.8204
-42.4912
-52.2917
-63.4205
-72.4896
-81.4396
-88.7849
-94.2551
-101.909
-115.495
-115.124
-141.577
-171.154
-266.747
-366.245
-478.246
-586.162
-679.424
-756.87
-817.644
-861.939
-891.563
-908.834
-916.431
-917.131
-913.449
-907.472
-900.723
-894.101
-888.032
-882.628
-878.161
-873.17
-869.498
-867.717
-867.163
0.0219447
-0.239994
-0.137428
-1.10183
-1.72008
-2.63934
-3.97963
-5.86452
-8.95519
-13.0503
-18.2046
-25.0677
-33.0548
-42.8277
-52.736
-63.9609
-73.1432
-82.227
-89.7263
-95.3702
-103.422
-116.616
-116.931
-141.976
-172.79
-267.358
-368.753
-481.289
-590.314
-684.587
-762.794
-824.172
-869.001
-899.184
-917.217
-925.915
-928.115
-926.311
-922.468
-917.909
-913.359
-909.13
-905.307
-902.129
-898.303
-895.578
-894.48
-894.468
0.0242966
-0.234806
-0.125605
-1.09551
-1.71233
-2.6371
-3.981
-5.88406
-8.98888
-13.1066
-18.3102
-25.2313
-33.3034
-43.1869
-53.2193
-64.5572
-73.8822
-83.1296
-90.8189
-96.6837
-105.173
-117.972
-119.062
-142.639
-174.701
-268.126
-371.323
-484.387
-594.421
-689.664
-768.608
-830.588
-875.983
-906.806
-925.715
-935.638
-939.436
-939.536
-937.747
-935.201
-932.488
-929.849
-927.373
-925.285
-922.45
-920.544
-920.058
-920.554
0.0264899
-0.229894
-0.114017
-1.0894
-1.7048
-2.63522
-3.9829
-5.90448
-9.02398
-13.1655
-18.4209
-25.4039
-33.5691
-43.5735
-53.7492
-65.2204
-74.7219
-84.1677
-92.0887
-98.2257
-107.19
-119.604
-121.544
-143.615
-176.908
-269.088
-373.969
-487.561
-598.505
-694.684
-774.352
-836.948
-882.96
-914.516
-934.419
-945.678
-951.138
-953.116
-953.255
-952.521
-951.412
-950.132
-948.797
-947.628
-945.639
-944.441
-944.5
-945.458
0.0290043
-0.224834
-0.102233
-1.08309
-1.69707
-2.63316
-3.98479
-5.92524
-9.06002
-13.2265
-18.5368
-25.5862
-33.8539
-43.9913
-54.3321
-65.9608
-75.6776
-85.3618
-93.5615
-100.03
-109.507
-121.555
-124.411
-144.956
-179.432
-270.282
-376.701
-490.827
-602.59
-699.673
-780.067
-843.307
-890
-922.396
-943.409
-956.093
-963.241
-967.031
-968.941
-969.809
-970.077
-969.945
-969.563
-969.16
-967.883
-967.289
-967.805
-969.141
0.0313706
-0.220052
-0.0906862
-1.07699
-1.68958
-2.63148
-3.98725
-5.94697
-9.09773
-13.2907
-18.6591
-25.7805
-34.1613
-44.4458
-54.9767
-66.7909
-76.7667
-86.7351
-95.2663
-102.129
-112.156
-123.87
-127.69
-146.71
-182.292
-271.741
-379.53
-494.198
-606.697
-704.661
-785.791
-849.722
-897.176
-930.519
-952.75
-966.924
-975.75
-981.252
-984.762
-987.02
-988.446
-989.258
-989.648
-989.855
-989.146
-989.027
-989.893
-991.499
0.0340696
-0.215124
-0.0789452
-1.07068
-1.6819
-2.62965
-3.98977
-5.96914
-9.13668
-13.3578
-18.7881
-25.9875
-34.4934
-44.9414
-55.6904
-67.7228
-78.0068
-88.3106
-97.2318
-104.56
-115.171
-126.595
-131.409
-148.926
-185.502
-273.496
-382.464
-497.684
-610.846
-709.672
-791.561
-856.241
-904.548
-938.948
-962.487
-978.188
-988.653
-995.747
-1000.68
-1004.12
-1006.5
-1008.06
-1009.05
-1009.72
-1009.44
-1009.66
-1010.76
-1012.53
0.0366321
-0.210473
-0.0674431
-1.06459
-1.67447
-2.6282
-3.99292
-5.9924
-9.17759
-13.4287
-18.9251
-26.2095
-34.854
-45.484
-56.4828
-68.7704
-79.4172
-90.1136
-99.4891
-107.355
-118.583
-129.771
-135.594
-151.647
-189.075
-275.571
-385.512
-501.287
-615.053
-714.729
-797.414
-862.915
-912.172
-947.73
-972.649
-989.891
-1001.93
-1010.49
-1016.67
-1021.1
-1024.24
-1026.37
-1027.78
-1028.75
-1028.75
-1029.21
-1030.44
-1032.28
0.0395392
-0.20568
-0.0557475
-1.05829
-1.66687
-2.62661
-3.99619
-6.01622
-9.22003
-13.5032
-19.0704
-26.4475
-35.2456
-46.0788
-57.3621
-69.9469
-81.0165
-92.1686
-102.068
-110.551
-122.425
-133.44
-140.265
-154.912
-193.018
-277.987
-388.677
-505.009
-619.328
-719.851
-803.377
-869.78
-920.088
-956.896
-983.25
-1002.03
-1015.57
-1025.46
-1032.73
-1037.99
-1041.71
-1044.24
-1045.92
-1047.03
-1047.14
-1047.66
-1048.88
-1050.66
0.0423226
-0.201164
-0.0442932
-1.05219
-1.65954
-2.62543
-4.00015
-6.04122
-9.26472
-13.5822
-19.2253
-26.7039
-35.6721
-46.732
-58.3385
-71.2672
-82.8253
-94.5016
-104.999
-114.178
-126.724
-137.639
-145.441
-158.751
-197.335
-280.753
-391.961
-508.841
-623.68
-725.053
-809.475
-876.87
-928.329
-966.466
-994.289
-1014.57
-1029.53
-1040.63
-1048.85
-1054.81
-1058.99
-1061.79
-1063.6
-1064.73
-1064.84
-1065.3
-1066.38
-1067.96
0.0454645
-0.196509
-0.0326467
-1.04587
-1.65203
-2.62411
-4.00428
-6.06687
-9.3112
-13.6657
-19.3901
-26.9797
-36.1361
-47.4489
-59.4206
-72.745
-84.8623
-97.1366
-108.311
-118.269
-131.507
-142.398
-151.132
-163.188
-202.023
-283.873
-395.362
-512.773
-628.108
-730.341
-815.723
-884.204
-936.909
-976.441
-1005.75
-1027.49
-1043.77
-1055.96
-1065.02
-1071.55
-1076.11
-1079.12
-1081
-1082.09
-1082.14
-1082.47
-1083.34
-1084.66
0.0484968
-0.192131
-0.0212438
-1.03976
-1.64482
-2.62321
-4.00915
-6.0938
-9.36019
-13.7544
-19.5661
-27.2773
-36.6415
-48.236
-60.6184
-74.3949
-87.1473
-100.098
-112.031
-122.849
-136.794
-147.741
-157.342
-168.236
-207.074
-287.342
-398.873
-516.789
-632.608
-735.717
-822.132
-891.793
-945.832
-986.808
-1017.59
-1040.74
-1058.23
-1071.39
-1081.16
-1088.2
-1093.08
-1096.28
-1098.26
-1099.35
-1099.38
-1099.66
-1100.42
-1101.58
0.0519025
-0.187614
-0.00964917
-1.03342
-1.63744
-2.62217
-4.01424
-6.12145
-9.4112
-13.8481
-19.7534
-27.5976
-37.1907
-49.0982
-61.9401
-76.2298
-89.6974
-103.408
-116.183
-127.94
-142.601
-153.686
-164.068
-173.894
-212.472
-291.146
-402.483
-520.864
-637.166
-741.176
-828.698
-899.632
-955.08
-997.536
-1029.78
-1054.25
-1072.84
-1086.85
-1097.25
-1104.72
-1109.9
-1113.31
-1115.45
-1116.64
-1116.79
-1117.21
-1118.08
-1119.33
0.0552144
-0.183374
0.00170037
-1.02728
-1.63036
-2.62155
-4.02011
-6.15043
-9.4649
-13.9478
-19.9533
-27.9427
-37.7873
-50.0415
-63.3949
-78.2632
-92.5299
-107.085
-120.788
-133.556
-148.935
-160.235
-171.299
-180.15
-218.197
-295.261
-406.177
-524.972
-641.763
-746.702
-835.411
-907.705
-964.628
-1008.59
-1042.26
-1067.97
-1087.55
-1102.29
-1113.23
-1121.1
-1126.59
-1130.26
-1132.64
-1134.05
-1134.48
-1135.18
-1136.35
-1137.88
0.0589171
-0.178996
0.0132411
-1.02088
-1.62312
-2.62079
-4.02622
-6.18016
-9.52077
-14.0529
-20.1658
-28.3133
-38.4332
-51.0703
-64.9895
-80.5055
-95.658
-111.146
-125.86
-139.708
-155.799
-167.385
-179.013
-186.978
-224.219
-299.654
-409.933
-529.079
-646.371
-752.272
-842.246
-915.98
-974.436
-1019.91
-1054.96
-1081.82
-1102.28
-1117.65
-1129.05
-1137.28
-1143.08
-1147.04
-1149.72
-1151.43
-1152.2
-1153.28
-1154.81
-1156.69
0.0625441
-0.174894
0.0245357
-1.01469
-1.61619
-2.62044
-4.03311
-6.21122
-9.57943
-14.1644
-20.3919
-28.7113
-39.1313
-52.1892
-66.7312
-82.9671
-99.0934
-115.602
-131.408
-146.392
-163.184
-175.114
-187.176
-194.338
-230.501
-304.284
-413.724
-533.149
-650.955
-757.853
-849.165
-924.414
-984.453
-1031.44
-1067.84
-1095.76
-1116.98
-1132.87
-1144.63
-1153.15
-1159.22
-1163.47
-1166.45
-1168.48
-1169.61
-1171.06
-1172.96
-1175.16
0.0665805
-0.170654
0.0360218
-1.00823
-1.6091
-2.61992
-4.04026
-6.24302
-9.64028
-14.2818
-20.6314
-29.1367
-39.8826
-53.4011
-68.6239
-85.6543
-102.843
-120.459
-137.434
-153.601
-171.071
-183.392
-195.748
-202.175
-237.003
-309.103
-417.52
-537.14
-655.475
-763.403
-856.121
-932.954
-994.623
-1043.14
-1080.84
-1109.73
-1131.58
-1147.86
-1159.86
-1168.56
-1174.82
-1179.26
-1182.45
-1184.68
-1186.06
-1187.77
-1189.88
-1192.28
0.070561
-0.166689
0.0472618
-1.00196
-1.60232
-2.6198
-4.04817
-6.27607
-9.70387
-14.4056
-20.8848
-29.5909
-40.689
-54.709
-70.6715
-88.5722
-106.91
-125.718
-143.93
-161.313
-179.433
-192.172
-204.674
-210.42
-243.674
-314.055
-421.284
-541.008
-659.881
-768.871
-863.055
-941.537
-1004.88
-1054.93
-1093.89
-1123.67
-1146.04
-1162.57
-1174.66
-1183.39
-1189.64
-1194.09
-1197.29
-1199.54
-1200.98
-1202.75
-1204.91
-1207.32
0.0749717
-0.162586
0.0586941
-0.995396
-1.59538
-2.61947
-4.05629
-6.30975
-9.76953
-14.5352
-21.1517
-30.0733
-41.5501
-56.1131
-72.8739
-91.7211
-111.292
-131.37
-150.879
-169.496
-188.227
-201.394
-213.891
-218.994
-250.459
-319.081
-424.975
-544.705
-664.12
-774.199
-869.9
-950.088
-1015.15
-1066.74
-1106.93
-1137.55
-1160.36
-1177.02
-1189.05
-1197.61
-1203.63
-1207.81
-1210.74
-1212.72
-1213.93
-1215.51
-1217.45
-1219.64
0.0793481
-0.158754
0.0698812
-0.989012
-1.58874
-2.6195
-4.06513
-6.34454
-9.8377
-14.6711
-21.4323
-30.5844
-42.4663
-57.6137
-75.2304
-95.0985
-115.98
-137.402
-158.256
-178.107
-197.403
-210.983
-223.324
-227.805
-257.3
-324.118
-428.551
-548.182
-668.134
-779.321
-876.579
-958.523
-1025.34
-1078.49
-1119.91
-1151.33
-1174.53
-1191.26
-1203.12
-1211.35
-1216.95
-1220.68
-1223.13
-1224.64
-1225.41
-1226.57
-1228.09
-1229.9
0.0841772
-0.154782
0.081263
-0.982317
-1.58193
-2.61927
-4.07411
-6.37977
-9.90762
-14.8123
-21.7254
-31.1225
-43.4353
-59.2079
-77.7354
-98.6964
-120.961
-143.789
-166.023
-187.09
-206.895
-220.855
-232.889
-236.752
-264.131
-329.099
-431.964
-551.387
-671.86
-784.166
-883.009
-966.749
-1035.37
-1090.11
-1132.76
-1164.99
-1188.6
-1205.39
-1217.04
-1224.89
-1230
-1233.18
-1235.07
-1236
-1236.24
-1236.89
-1237.9
-1239.23
0.0889962
-0.151077
0.0924027
-0.975781
-1.57542
-2.61933
-4.0837
-6.41586
-9.97963
-14.9592
-22.0309
-31.6872
-44.4556
-60.8924
-80.3823
-102.503
-126.213
-150.499
-174.131
-196.378
-216.628
-230.91
-242.495
-245.73
-270.885
-333.959
-435.168
-554.271
-675.234
-788.657
-889.101
-974.669
-1045.14
-1101.5
-1145.41
-1178.51
-1202.58
-1219.48
-1230.99
-1238.54
-1243.25
-1245.98
-1247.38
-1247.81
-1247.56
-1247.73
-1248.23
-1249.06
0.0942935
-0.147229
0.103741
-0.968906
-1.56871
-2.61908
-4.0933
-6.4521
-10.0528
-15.1104
-22.3471
-32.2759
-45.5228
-62.6603
-83.159
-106.5
-131.707
-157.489
-182.52
-205.893
-226.516
-241.043
-252.045
-254.627
-277.493
-338.632
-438.113
-556.781
-678.188
-792.714
-894.763
-982.186
-1054.55
-1112.59
-1157.8
-1191.85
-1216.49
-1233.61
-1245.1
-1252.49
-1256.94
-1259.36
-1260.41
-1260.5
-1259.91
-1259.77
-1259.97
-1260.5
0.0996076
-0.143641
0.114841
-0.962171
-1.56227
-2.61903
-4.10338
-6.48885
-10.1275
-15.2661
-22.6732
-32.8866
-46.6329
-64.504
-86.0521
-110.666
-137.407
-164.708
-191.122
-215.547
-236.463
-251.139
-261.436
-263.332
-283.886
-343.056
-440.751
-558.866
-680.659
-796.256
-899.899
-989.198
-1063.49
-1123.27
-1169.89
-1205.01
-1230.37
-1247.89
-1259.56
-1266.98
-1271.37
-1273.67
-1274.58
-1274.52
-1273.79
-1273.52
-1273.58
-1273.98
0.105427
-0.139905
0.126145
-0.955067
-1.55561
-2.61858
-4.1133
-6.52534
-10.2025
-15.4246
-23.0069
-33.5157
-47.7792
-66.4124
-89.0425
-114.971
-143.27
-172.095
-199.855
-225.242
-246.365
-261.081
-270.562
-271.735
-289.992
-347.168
-443.034
-560.479
-682.579
-799.203
-904.416
-995.597
-1071.86
-1133.46
-1181.63
-1217.99
-1244.27
-1262.41
-1274.47
-1282.13
-1286.65
-1289.02
-1289.99
-1290
-1289.34
-1289.17
-1289.31
-1289.79
0.111293
-0.136423
0.137218
-0.948078
-1.54921
-2.61824
-4.12349
-6.56189
-10.2781
-15.5858
-23.3468
-34.1599
-48.9554
-68.3733
-92.1095
-119.383
-149.246
-179.582
-208.633
-234.876
-256.111
-270.746
-279.32
-279.731
-295.744
-350.913
-444.916
-561.573
-683.888
-801.472
-908.217
-1001.28
-1079.54
-1143.08
-1192.97
-1230.77
-1258.21
-1277.23
-1289.93
-1298.04
-1302.87
-1305.47
-1306.59
-1306.73
-1306.22
-1306.27
-1306.66
-1307.38
0.117694
-0.132785
0.148502
-0.940684
-1.54253
-2.61739
-4.13332
-6.59769
-10.3532
-15.7479
-23.69
-34.8143
-50.1522
-70.3713
-95.2275
-123.862
-155.278
-187.091
-217.357
-244.339
-265.59
-280.016
-287.607
-287.22
-301.077
-354.237
-446.352
-562.104
-684.524
-802.986
-911.207
-1006.13
-1086.44
-1152.04
-1203.81
-1243.29
-1272.16
-1292.33
-1305.92
-1314.7
-1320.04
-1323.02
-1324.47
-1324.87
-1324.62
-1324.9
-1325.48
-1326.39
0.124171
-0.129392
0.159564
-0.933378
-1.53608
-2.61654
-4.14318
-6.63301
-10.4276
-15.9103
-24.0347
-35.4745
-51.3611
-72.3901
-98.3692
-128.365
-161.304
-194.542
-225.93
-253.52
-274.686
-288.775
-295.324
-294.112
-305.929
-357.094
-447.304
-562.033
-684.433
-803.671
-913.296
-1010.05
-1092.45
-1160.21
-1214.07
-1255.46
-1286.03
-1307.65
-1322.37
-1332.02
-1337.99
-1341.46
-1343.28
-1343.98
-1343.98
-1344.57
-1345.47
-1346.73
0.131214
-0.125833
0.170846
-0.92563
-1.5293
-2.61506
-4.15241
-6.667
-10.5004
-16.071
-24.3774
-36.1344
-52.5707
-74.4103
-101.503
-132.844
-167.257
-201.846
-234.246
-262.307
-283.287
-296.915
-302.381
-300.325
-310.242
-359.439
-447.732
-561.323
-683.564
-803.455
-914.393
-1012.94
-1097.44
-1167.47
-1223.59
-1267.12
-1299.66
-1322.99
-1339.14
-1349.91
-1356.77
-1360.93
-1363.31
-1364.43
-1364.8
-1365.72
-1366.92
-1368.47
0.138368
-0.122506
0.181919
-0.917937
-1.52271
-2.61345
-4.16141
-6.69988
-10.5712
-16.2294
-24.7158
-36.7887
-53.7706
-76.4127
-104.597
-137.251
-173.069
-208.916
-242.202
-270.59
-291.284
-304.333
-308.694
-305.79
-313.966
-361.236
-447.605
-559.941
-681.871
-802.274
-914.415
-1014.69
-1101.3
-1173.66
-1232.2
-1278.05
-1312.76
-1338.05
-1355.85
-1367.95
-1375.89
-1380.92
-1384.02
-1385.74
-1386.64
-1388.07
-1389.72
-1391.7
0.146122
-0.119002
0.193224
-0.909759
-1.51574
-2.61107
-4.16948
-6.7308
-10.639
-16.3833
-25.0461
-37.4306
-54.9479
-78.3753
-107.616
-141.532
-178.667
-215.661
-249.694
-278.265
-298.575
-310.94
-314.191
-310.45
-317.053
-362.451
-446.893
-557.86
-679.314
-800.069
-913.283
-1015.21
-1103.91
-1178.65
-1239.7
-1288.02
-1325.07
-1352.49
-1372.11
-1385.72
-1394.88
-1400.92
-1404.86
-1407.31
-1408.86
-1410.96
-1413.26
-1415.89
0.154022
-0.115714
0.204333
-0.901601
-1.50889
-2.60844
-4.17702
-6.75996
-10.7036
-16.5317
-25.3657
-38.0542
-56.0914
-80.277
-110.527
-145.637
-183.981
-221.993
-256.626
-285.235
-305.068
-316.659
-318.811
-314.259
-319.466
-363.057
-445.571
-555.057
-675.859
-796.788
-910.924
-1014.39
-1105.13
-1182.28
-1245.88
-1296.79
-1336.32
-1366.02
-1387.61
-1402.84
-1413.32
-1420.43
-1425.26
-1428.47
-1430.7
-1433.5
-1436.5
-1439.85
0.162557
-0.112233
0.215687
-0.892916
-1.50161
-2.6049
-4.18332
-6.78649
-10.7637
-16.6726
-25.6706
-38.6522
-57.1874
-82.0949
-113.292
-149.512
-188.943
-227.829
-262.906
-291.411
-310.681
-321.425
-322.506
-317.182
-321.173
-363.033
-443.622
-551.512
-671.479
-792.388
-907.275
-1012.16
-1104.87
-1184.38
-1250.57
-1304.13
-1346.24
-1378.33
-1402.04
-1419.04
-1430.95
-1439.23
-1445.01
-1449.03
-1451.99
-1455.52
-1459.19
-1463.19
0.171275
-0.108951
0.226862
-0.884212
-1.4944
-2.60095
-4.18877
-6.81058
-10.8192
-16.805
-25.9584
-39.2188
-58.2247
-83.8083
-115.879
-153.107
-193.487
-233.091
-268.452
-296.718
-315.348
-325.191
-325.24
-319.2
-322.152
-362.363
-441.03
-547.213
-666.152
-786.832
-902.278
-1008.43
-1102.99
-1184.8
-1253.57
-1309.81
-1354.53
-1389.1
-1415.05
-1433.94
-1447.39
-1456.94
-1463.77
-1468.7
-1472.48
-1476.83
-1481.25
-1485.93
0.180662
-0.105458
0.238299
-0.874933
-1.48668
-2.59597
-4.19267
-6.83139
-10.8689
-16.9267
-26.2251
-39.7469
-59.1902
-85.3954
-118.254
-156.375
-197.554
-237.709
-273.194
-301.092
-319.015
-327.921
-326.99
-320.302
-322.385
-361.038
-437.788
-542.154
-659.868
-780.093
-895.889
-1003.13
-1099.41
-1183.43
-1254.72
-1313.6
-1360.93
-1398.01
-1426.26
-1447.15
-1462.26
-1473.14
-1481.07
-1486.91
-1491.44
-1496.5
-1501.54
-1506.84
0.190265
-0.10214
0.249575
-0.865593
-1.47897
-2.59044
-4.1954
-6.84911
-10.9126
-17.0369
-26.4684
-40.231
-60.0736
-86.8377
-120.39
-159.275
-201.09
-241.626
-277.074
-304.485
-321.645
-329.596
-327.749
-320.49
-321.867
-359.055
-433.894
-536.334
-652.619
-772.155
-888.072
-996.207
-1094.05
-1180.15
-1253.86
-1315.31
-1365.22
-1404.79
-1435.36
-1458.29
-1475.09
-1487.35
-1496.43
-1503.24
-1508.59
-1514.44
-1520.15
-1526.04
0.200571
-0.0985886
0.261131
-0.855631
-1.47069
-2.58373
-4.19628
-6.86294
-10.9491
-17.1337
-26.6848
-40.6648
-60.8635
-88.1165
-122.258
-161.768
-204.052
-244.791
-280.046
-306.864
-323.214
-330.213
-327.52
-319.774
-320.598
-356.418
-429.353
-529.76
-644.413
-763.013
-878.805
-987.613
-1086.84
-1174.88
-1250.92
-1314.87
-1367.33
-1409.34
-1442.19
-1467.14
-1485.6
-1499.17
-1509.26
-1516.87
-1522.8
-1529.2
-1535.37
-1541.72
0.211128
-0.0951851
0.272545
-0.845561
-1.46235
-2.57635
-4.19566
-6.87309
-10.9785
-17.2163
-26.8724
-41.044
-61.5517
-89.2175
-123.837
-163.826
-206.405
-247.171
-282.084
-308.212
-323.719
-329.779
-326.318
-318.178
-318.592
-353.137
-424.177
-522.447
-635.261
-752.669
-868.077
-977.321
-1077.72
-1167.55
-1245.82
-1312.24
-1367.24
-1411.69
-1446.87
-1473.98
-1494.32
-1509.45
-1520.84
-1529.57
-1536.41
-1543.72
-1550.74
-1557.92
0.222419
-0.0915201
0.284257
-0.834818
-1.45336
-2.56765
-4.19291
-6.8788
-10.9996
-17.2831
-27.0282
-41.3633
-62.1292
-90.1268
-125.107
-165.422
-208.122
-248.741
-283.171
-308.524
-323.165
-328.318
-324.172
-315.73
-315.864
-349.23
-418.383
-514.417
-625.187
-741.142
-855.892
-965.315
-1066.68
-1158.13
-1238.52
-1307.39
-1364.89
-1411.8
-1449.35
-1478.66
-1500.97
-1517.73
-1530.46
-1540.3
-1548
-1556.14
-1563.87
-1571.78
0.233994
-0.0879707
0.295847
-0.823918
-1.44424
-2.55814
-4.18838
-6.88033
-11.0126
-17.3335
-27.151
-41.6197
-62.5905
-90.8354
-126.057
-166.543
-209.19
-249.494
-283.309
-307.815
-321.577
-325.864
-321.118
-312.469
-312.443
-344.722
-411.999
-505.699
-614.222
-728.458
-842.265
-951.595
-1053.68
-1146.57
-1228.99
-1300.25
-1360.33
-1409.86
-1449.94
-1481.65
-1506.16
-1524.83
-1539.15
-1550.35
-1559.15
-1568.38
-1577.13
-1586
0.24633
-0.0841278
0.307753
-0.812293
-1.43441
-2.5472
-4.18144
-6.87696
-11.0165
-17.3662
-27.2386
-41.8095
-62.9298
-91.3351
-126.676
-167.178
-209.604
-249.43
-282.509
-306.108
-318.989
-322.46
-317.201
-308.439
-308.361
-339.642
-405.054
-496.329
-602.409
-714.657
-827.226
-936.174
-1038.72
-1132.85
-1217.15
-1290.76
-1353.49
-1405.78
-1448.56
-1482.89
-1509.92
-1530.87
-1547.17
-1560.05
-1570.18
-1580.57
-1590.18
-1599.72
0.258977
-0.0803643
0.319559
-0.800459
-1.42437
-2.53534
-4.17247
-6.86898
-11.0113
-17.381
-27.2902
-41.9311
-63.1446
-91.6228
-126.963
-167.328
-209.368
-248.566
-280.8
-303.442
-315.446
-318.156
-312.471
-303.688
-303.658
-334.026
-397.585
-486.348
-589.792
-699.787
-810.818
-919.084
-1021.82
-1116.96
-1202.97
-1278.86
-1344.27
-1399.39
-1444.99
-1482.09
-1511.85
-1535.38
-1553.98
-1568.87
-1580.67
-1592.63
-1603.64
-1614.39
0.272404
-0.0762692
0.331699
-0.787844
-1.41353
-2.52192
-4.16084
-6.85573
-10.9964
-17.3768
-27.3043
-41.9824
-63.2322
-91.6958
-126.916
-166.996
-208.496
-246.924
-278.216
-299.861
-311
-313.01
-306.984
-298.266
-298.372
-327.908
-389.627
-475.801
-576.427
-683.908
-793.098
-900.373
-1003.02
-1098.92
-1186.46
-1264.53
-1332.56
-1390.54
-1439.08
-1479.12
-1511.8
-1538.23
-1559.53
-1576.89
-1590.8
-1604.67
-1617.26
-1629.41
0.286159
-0.0722094
0.343761
-0.77496
-1.40242
-2.50746
-4.14695
-6.83756
-10.9721
-17.3537
-27.2811
-41.9634
-63.193
-91.5565
-126.541
-166.195
-207.01
-244.54
-274.803
-295.42
-305.71
-307.08
-300.795
-292.226
-292.548
-321.329
-381.224
-464.735
-562.372
-667.086
-774.136
-880.106
-982.352
-1078.75
-1167.64
-1247.75
-1318.35
-1379.25
-1430.82
-1473.89
-1509.62
-1539.14
-1563.42
-1583.57
-1599.94
-1616.16
-1630.98
-1645.23
0.300706
-0.0677729
0.356174
-0.761234
-1.39042
-2.49135
-4.1302
-6.81382
-10.9375
-17.3108
-27.2196
-41.8733
-63.0271
-91.2074
-125.846
-164.941
-204.938
-241.452
-270.613
-290.177
-299.637
-300.428
-293.959
-285.616
-286.227
-314.324
-372.414
-453.201
-547.694
-649.403
-754.019
-858.371
-959.912
-1056.54
-1146.53
-1228.51
-1301.59
-1365.41
-1420.16
-1466.52
-1505.59
-1538.56
-1566.33
-1589.94
-1609.44
-1628.6
-1646.01
-1662.64
0.315592
-0.0633206
0.368529
-0.747176
-1.37808
-2.47408
-4.11098
-6.7849
-10.893
-17.2486
-27.1206
-41.7134
-62.7377
-90.6554
-124.845
-163.257
-202.313
-237.71
-265.703
-284.197
-292.846
-293.114
-286.535
-278.488
-279.452
-306.937
-363.242
-441.251
-532.463
-630.948
-732.852
-835.276
-935.802
-1032.36
-1123.19
-1206.84
-1282.29
-1348.98
-1406.92
-1456.61
-1499.04
-1535.45
-1566.75
-1593.96
-1616.79
-1639.14
-1659.46
-1678.67
0.331271
-0.0584384
0.381251
-0.732213
-1.36477
-2.45505
-4.08871
-6.75022
-10.8381
-17.1665
-26.9836
-41.4843
-62.3272
-89.9069
-123.55
-161.167
-199.174
-233.363
-260.135
-277.546
-285.405
-285.204
-278.578
-270.891
-272.268
-299.206
-353.75
-428.948
-516.762
-611.826
-710.756
-810.954
-910.15
-1006.34
-1097.74
-1182.85
-1260.5
-1330
-1391.16
-1444.33
-1490.26
-1530.1
-1564.9
-1595.8
-1622.21
-1648.08
-1671.68
-1693.87
0.347287
-0.053481
0.393931
-0.716845
-1.35102
-2.43477
-4.06379
-6.7102
-10.7733
-17.0651
-26.81
-41.1883
-61.8008
-88.9726
-121.981
-158.7
-195.564
-228.468
-253.976
-270.296
-277.386
-276.763
-270.15
-262.881
-264.723
-291.178
-343.992
-416.352
-500.676
-592.148
-687.864
-785.549
-883.109
-978.611
-1070.3
-1156.61
-1236.29
-1308.49
-1372.86
-1429.52
-1479.02
-1522.35
-1560.51
-1594.93
-1624.91
-1654.36
-1681.38
-1706.77
0.364082
-0.0480343
0.406988
-0.700503
-1.33622
-2.41263
-4.03566
-6.66429
-10.698
-16.944
-26.5999
-40.8271
-61.1628
-87.8619
-120.155
-155.888
-191.526
-223.083
-247.292
-262.517
-268.858
-267.859
-261.31
-254.51
-256.866
-282.896
-334.011
-403.527
-484.291
-572.029
-664.318
-759.219
-854.837
-949.345
-1041.01
-1128.27
-1209.76
-1284.52
-1351.99
-1412.14
-1465.34
-1512.41
-1554.26
-1592.31
-1625.91
-1659.19
-1690
-1718.96
0.381199
-0.0424478
0.420017
-0.683681
-1.32089
-2.38914
-4.00473
-6.61295
-10.6127
-16.8041
-26.355
-40.4038
-60.42
-86.5876
-118.095
-152.762
-187.107
-217.266
-240.151
-254.283
-259.893
-258.556
-252.118
-245.832
-248.742
-274.403
-323.855
-390.525
-467.68
-551.569
-640.24
-732.102
-825.484
-918.679
-1010.02
-1097.93
-1180.98
-1258.1
-1328.56
-1392.15
-1449.04
-1499.83
-1545.31
-1586.89
-1623.88
-1660.56
-1694.92
-1727.48
0.399061
-0.0363053
0.433434
-0.665814
-1.30442
-2.3637
-3.97044
-6.55563
-10.517
-16.6451
-26.0756
-39.9205
-59.5772
-85.1603
-115.818
-149.355
-182.351
-211.073
-232.619
-245.66
-250.558
-248.916
-242.627
-236.89
-240.389
-265.728
-313.55
-377.39
-450.911
-530.859
-615.746
-704.336
-795.193
-886.762
-977.443
-1065.68
-1150.03
-1229.3
-1302.64
-1369.64
-1430.3
-1485.04
-1534.4
-1579.67
-1620.06
-1659.98
-1697.49
-1733.17
0.417205
-0.0299487
0.446832
-0.647378
-1.28733
-2.3368
-3.93322
-6.49281
-10.4115
-16.468
-25.7637
-39.3808
-58.6419
-83.5938
-113.348
-145.7
-177.304
-204.563
-224.762
-236.72
-240.923
-239.002
-232.893
-227.735
-231.848
-256.907
-303.137
-364.168
-434.05
-510
-590.969
-676.078
-764.144
-853.771
-943.463
-1031.7
-1117.03
-1198.19
-1274.22
-1344.54
-1408.97
-1467.77
-1521.34
-1570.85
-1615.46
-1659.6
-1701.41
-1741.25
0.436041
-0.0229606
0.460617
-0.627818
-1.26899
-2.30787
-3.8925
-6.42399
-10.2957
-16.2726
-25.4197
-38.7871
-57.6198
-81.8994
-110.705
-141.828
-172.009
-197.79
-216.64
-227.526
-231.049
-228.873
-222.969
-218.41
-223.155
-247.966
-292.64
-350.903
-417.167