/*--------------------------------*- C++ -*----------------------------------*\
| =========                 |                                                 |
| \\      /  F ield         | OpenFOAM: The Open Source CFD Toolbox           |
|  \\    /   O peration     | Version:  2406                                  |
|   \\  /    A nd           | Website:  www.openfoam.com                      |
|    \\/     M anipulation  |                                                 |
\*---------------------------------------------------------------------------*/
FoamFile
{
    version     2.0;
    format      ascii;
    arch        "LSB;label=32;scalar=64";
    class       surfaceScalarField;
    location    "10";
    object      phi;
}
// * * * * * * * * * * * * * * * * * * * * * * * * * * * * * * * * * * * * * //

dimensions      [0 3 -1 0 0 0 0];

oriented        oriented;

internalField   nonuniform List<scalar> 
75600
(
2.16696
-1217.89
1218.34
1.79919
-1008.28
1008.65
1.4948
-834.808
835.113
1.2431
-691.197
691.449
1.03483
-572.331
572.539
0.8625
-473.951
474.123
0.719851
-392.535
392.678
0.60176
-325.17
325.288
0.503955
-269.444
269.542
0.422903
-223.362
223.443
0.355707
-185.276
185.343
0.29994
-153.821
153.877
0.253592
-127.872
127.918
0.215023
-106.5
106.538
0.182827
-88.9395
88.9717
0.155884
-74.5635
74.5904
0.133204
-62.8557
62.8784
0.114014
-53.3978
53.417
0.0976092
-45.8506
45.867
0.0834089
-39.9434
39.9576
0.0708812
-35.4671
35.4796
0.0596964
-32.2638
32.275
0.0492625
-30.2212
30.2316
0.039583
-29.2808
29.2905
0.0301807
-29.3064
29.3158
0.0229408
-23.5252
23.5324
0.0173709
-18.8789
18.8844
0.0131723
-15.1474
15.1516
0.0100018
-12.1461
12.1492
0.00758104
-9.73356
9.73597
0.0057107
-7.79611
7.79797
0.00424225
-6.24173
6.24319
0.00306388
-4.99611
4.99729
0.0021002
-3.99883
3.99979
0.00128996
-3.20094
3.20175
0.000588485
-2.563
2.5637
-3.76061e-05
-2.05328
2.05391
-0.000614254
-1.64638
1.64695
-0.0011572
-1.32204
1.32258
-0.00167553
-1.06409
1.06461
-0.00217227
-0.859744
0.860238
-0.00264554
-0.698849
0.699322
-0.00311427
-0.573397
0.573865
-0.00348785
-0.477358
0.47773
-0.00389058
-0.40525
0.405652
-0.00448071
-0.354397
0.354986
-0.00520262
-0.322019
0.32274
-0.305962
0.306739
-0.00598051
2.19446
-1217.44
1.82238
-1007.91
1.51423
-834.5
1.25929
-690.943
1.04824
-572.12
0.873546
-473.776
0.728887
-392.39
0.609107
-325.05
0.509878
-269.345
0.427639
-223.28
0.359456
-185.208
0.302874
-153.764
0.25586
-127.825
0.216754
-106.461
0.184133
-88.9069
0.156864
-74.5362
0.133947
-62.8328
0.114602
-53.3784
0.0981176
-45.8341
0.0839076
-39.9292
0.0714514
-35.4546
0.0603932
-32.2528
0.0501663
-30.211
0.0407384
-29.2714
0.0316563
-29.2973
0.0246296
-23.5181
0.0192331
-18.8735
0.0151956
-15.1434
0.0121982
-12.1431
0.00995264
-9.73132
0.0082529
-7.79441
0.00694118
-6.24042
0.00589482
-4.99507
0.00503378
-3.99797
0.00429172
-3.2002
0.00362205
-2.56233
0.00299014
-2.05265
0.00237108
-1.64576
0.00175309
-1.32142
0.00113257
-1.06347
0.000512897
-0.859125
-9.87931e-05
-0.698237
-0.000709887
-0.572786
-0.00125081
-0.476817
-0.00183776
-0.404663
-0.00263791
-0.353597
-0.00363603
-0.321022
-0.304865
-0.00473282
2.22377
-1216.99
1.84674
-1007.53
1.53426
-834.188
1.27555
-690.684
1.06127
-571.906
0.883803
-473.599
0.736796
-392.243
0.615027
-324.928
0.514131
-269.244
0.430496
-223.197
0.361155
-185.139
0.303618
-153.707
0.255826
-127.777
0.216096
-106.421
0.182985
-88.8738
0.155345
-74.5085
0.132165
-62.8096
0.112655
-53.3589
0.0960991
-45.8176
0.0819026
-39.915
0.0695496
-35.4423
0.0586654
-32.2419
0.0487029
-30.201
0.0396019
-29.2624
0.030932
-29.2886
0.0241665
-23.5114
0.0189796
-18.8683
0.0151313
-15.1395
0.0123417
-12.1403
0.0103094
-9.7293
0.0088185
-7.79292
0.00769783
-6.2393
0.00680965
-4.99418
0.00606697
-3.99724
0.00539658
-3.19953
0.00474964
-2.56169
0.00408968
-2.05199
0.00339465
-1.64507
0.00265875
-1.32068
0.0018858
-1.0627
0.00108766
-0.858328
0.000273855
-0.697424
-0.000538785
-0.571974
-0.00135926
-0.475997
-0.00224165
-0.403782
-0.00327519
-0.352565
-0.00447388
-0.319823
-0.30357
-0.00577013
2.25509
-1216.53
1.87269
-1007.15
1.55553
-833.871
1.2928
-690.421
1.07507
-571.688
0.894675
-473.418
0.745183
-392.094
0.621324
-324.804
0.518669
-269.142
0.433568
-223.111
0.363009
-185.068
0.304467
-153.648
0.255853
-127.728
0.215459
-106.38
0.181822
-88.8401
0.153776
-74.4805
0.130298
-62.7861
0.110587
-53.3392
0.0939192
-45.8009
0.0796925
-39.9007
0.0673943
-35.43
0.0566243
-32.2311
0.046861
-30.1913
0.037995
-29.2535
0.0296354
-29.2802
0.0230384
-23.5048
0.0179912
-18.8633
0.0142718
-15.1358
0.0116433
-12.1376
0.00978701
-9.72744
0.00847408
-7.79161
0.00751799
-6.23834
0.00676436
-4.99343
0.00611718
-3.99659
0.00549697
-3.19891
0.0048527
-2.56104
0.00414678
-2.05129
0.00336209
-1.64428
0.00249992
-1.31982
0.00157178
-1.06177
0.000598633
-0.857356
-0.000406579
-0.696419
-0.00141381
-0.570967
-0.00249325
-0.474919
-0.00360673
-0.402669
-0.00475962
-0.351412
-0.00595747
-0.318626
-0.30234
-0.00718694
2.28857
-1216.06
1.9004
-1006.76
1.57828
-833.548
1.31133
-690.154
1.09002
-571.467
0.906601
-473.235
0.754563
-391.942
0.628563
-324.678
0.524121
-269.037
0.437529
-223.025
0.365731
-184.996
0.306165
-153.589
0.256709
-127.679
0.215627
-106.339
0.181437
-88.8059
0.152951
-74.452
0.129136
-62.7623
0.109174
-53.3193
0.0923347
-45.7841
0.0780045
-39.8864
0.0656739
-35.4177
0.0549094
-32.2203
0.0452205
-30.1816
0.0364311
-29.2447
0.0282025
-29.272
0.0216288
-23.4982
0.0166146
-18.8583
0.0129357
-15.1321
0.0103959
-12.1351
0.00865604
-9.72571
0.00747177
-7.79043
0.00663924
-6.23752
0.00598837
-4.99278
0.00541212
-3.99602
0.00482709
-3.19833
0.00418044
-2.5604
0.00343544
-2.05054
0.0025813
-1.64343
0.00162701
-1.31887
0.000591973
-1.06074
-0.000492853
-0.856273
-0.00161088
-0.695303
-0.00273358
-0.569846
-0.00392375
-0.47373
-0.0050837
-0.40151
-0.00619432
-0.350303
-0.00725245
-0.317568
-0.301324
-0.00826849
2.32447
-1215.58
1.93023
-1006.36
1.60296
-833.221
1.33164
-689.883
1.10664
-571.242
0.92011
-473.048
0.765468
-391.787
0.63729
-324.55
0.531028
-268.931
0.442921
-222.937
0.369864
-184.923
0.309255
-153.528
0.25894
-127.628
0.217153
-106.298
0.182389
-88.7711
0.15344
-74.4231
0.129259
-62.7382
0.109014
-53.299
0.0919624
-45.767
0.0774808
-39.8719
0.0650617
-35.4052
0.0542312
-32.2095
0.0445358
-30.1719
0.035718
-29.2359
0.0275009
-29.2638
0.0208519
-23.4916
0.0157986
-18.8532
0.012103
-15.1284
0.00960691
-12.1326
0.00794945
-9.72406
0.00686795
-7.78935
0.00613937
-6.23679
0.00557824
-4.99222
0.00506452
-3.99551
0.00451262
-3.19778
0.00386835
-2.55975
0.00309771
-2.04977
0.00219702
-1.64253
0.00118389
-1.31785
8.61239e-05
-1.05964
-0.0010562
-0.855131
-0.00222315
-0.694137
-0.00338288
-0.568687
-0.00455622
-0.472557
-0.00563312
-0.400434
-0.00660159
-0.349335
-0.00746254
-0.316708
-0.300559
-0.00822881
2.36283
-1215.1
1.96215
-1005.96
1.6294
-832.888
1.35347
-689.607
1.12458
-571.013
0.934791
-472.858
0.777418
-391.63
0.64696
-324.42
0.538796
-268.823
0.449106
-222.847
0.374735
-184.849
0.313037
-153.467
0.261823
-127.577
0.219295
-106.255
0.183926
-88.7358
0.154486
-74.3936
0.12991
-62.7136
0.109353
-53.2785
0.0920606
-45.7497
0.0773957
-39.8573
0.0648518
-35.3927
0.0539116
-32.1985
0.0441597
-30.1622
0.0352464
-29.227
0.0269623
-29.2555
0.0201659
-23.4848
0.0150188
-18.8481
0.0112631
-15.1247
0.0087794
-12.1301
0.0071841
-9.72247
0.00619307
-7.78836
0.00556129
-6.23616
0.00508696
-4.99175
0.00463479
-3.99506
0.00411803
-3.19727
0.00348122
-2.55912
0.00269491
-2.04898
0.00176273
-1.6416
0.000712946
-1.31681
-0.000417702
-1.05851
-0.00158152
-0.853969
-0.00275079
-0.692969
-0.00388021
-0.567559
-0.0049586
-0.471479
-0.00588586
-0.399507
-0.00666872
-0.348552
-0.00731215
-0.316065
-0.300045
-0.00782643
2.40377
-1214.61
1.99623
-1005.56
1.65769
-832.55
1.37686
-689.326
1.14388
-570.78
0.950657
-472.665
0.790414
-391.47
0.657562
-324.287
0.547405
-268.713
0.456057
-222.756
0.38031
-184.773
0.317471
-153.404
0.265314
-127.525
0.222008
-106.212
0.186002
-88.6998
0.156039
-74.3636
0.131041
-62.6886
0.110145
-53.2575
0.0925837
-45.7322
0.0777055
-39.8424
0.0650046
-35.38
0.0539152
-32.1874
0.0440608
-30.1523
0.0349893
-29.218
0.0265637
-29.2471
0.0195483
-23.4778
0.0142513
-18.8428
0.0103917
-15.1208
0.00788961
-12.1276
0.00633797
-9.72092
0.00542754
-7.78745
0.00488839
-6.23562
0.00450067
-4.99137
0.00411193
-3.99467
0.00363439
-3.19679
0.00301179
-2.55849
0.00222052
-2.04819
0.00127182
-1.64065
0.00020613
-1.31574
-0.00092964
-1.05738
-0.00207996
-0.85282
-0.00320576
-0.691845
-0.00424653
-0.566519
-0.00517988
-0.470547
-0.00592388
-0.398763
-0.00650803
-0.34797
-0.00693515
-0.315639
-0.299763
-0.00721848
2.44739
-1214.11
2.03258
-1005.14
1.68789
-832.205
1.40191
-689.04
1.1646
-570.543
0.967776
-472.468
0.804524
-391.306
0.669164
-324.151
0.556923
-268.6
0.463842
-222.663
0.386657
-184.696
0.322626
-153.34
0.269483
-127.472
0.225362
-106.168
0.188685
-88.6631
0.158169
-74.3331
0.13272
-62.6632
0.111456
-53.2363
0.0935947
-45.7143
0.0784702
-39.8273
0.0655752
-35.3671
0.0542906
-32.1762
0.0442805
-30.1423
0.0349789
-29.2087
0.0263242
-29.2384
0.0190083
-23.4705
0.0134964
-18.8373
0.0094822
-15.1168
0.00692537
-12.1251
0.00539491
-9.7194
0.00455268
-7.78661
0.00410055
-6.23517
0.00379877
-4.99107
0.00347599
-3.99435
0.00304312
-3.19636
0.00244379
-2.55789
0.0016611
-2.04741
0.000714905
-1.6397
-0.00034117
-1.31469
-0.00145084
-1.05627
-0.00254838
-0.851725
-0.00358254
-0.690812
-0.00448808
-0.565614
-0.00524299
-0.469791
-0.00579674
-0.398211
-0.00618512
-0.347581
-0.00642141
-0.315404
-0.299672
-0.00651416
2.49381
-1213.6
2.07128
-1004.72
1.72011
-831.854
1.4287
-688.749
1.18685
-570.301
0.986243
-472.268
0.819843
-391.14
0.681868
-324.013
0.567452
-268.486
0.472567
-222.568
0.393887
-184.617
0.328615
-153.274
0.274445
-127.418
0.229472
-106.123
0.19209
-88.6257
0.16099
-74.302
0.135059
-62.6372
0.113395
-53.2146
0.0952011
-45.6961
0.0797927
-39.8119
0.0666612
-35.354
0.0551289
-32.1646
0.0449004
-30.1321
0.0352852
-29.1991
0.0262999
-29.2294
0.0185907
-23.4627
0.0127887
-18.8315
0.00856204
-15.1126
0.00590782
-12.1224
0.00437164
-9.71787
0.00358225
-7.78582
0.00320995
-6.2348
0.00299274
-4.99085
0.00273916
-3.9941
0.00235777
-3.19598
0.0017931
-2.55733
0.0010354
-2.04665
0.000114146
-1.63878
-0.00090281
-1.31367
-0.00195091
-1.05522
-0.00295418
-0.850724
-0.00385417
-0.689913
-0.00459194
-0.564877
-0.00515868
-0.469224
-0.00552891
-0.397842
-0.00574518
-0.347365
-0.0058291
-0.315323
-0.299724
-0.00577826
2.54316
-1213.08
2.11247
-1004.29
1.75444
-831.496
1.45731
-688.452
1.21071
-570.054
1.00615
-472.063
0.836465
-390.97
0.695766
-323.873
0.579092
-268.369
0.482335
-222.471
0.402103
-184.537
0.335543
-153.208
0.280305
-127.363
0.234445
-106.077
0.196327
-88.5876
0.164611
-74.2703
0.138166
-62.6108
0.116069
-53.1925
0.0975051
-45.6776
0.0817711
-39.7961
0.0683542
-35.3405
0.0565141
-32.1528
0.0459951
-30.1216
0.0359708
-29.1891
0.0265379
-29.22
0.0183304
-23.4545
0.0121527
-18.8253
0.00764747
-15.1081
0.00484652
-12.1196
0.00327291
-9.7163
0.00251767
-7.78507
0.00221625
-6.2345
0.00208134
-4.99072
0.00190079
-3.99393
0.00157889
-3.19566
0.00106232
-2.55681
0.000349088
-2.04594
-0.000520644
-1.63791
-0.0014673
-1.31273
-0.00241713
-1.05428
-0.00328627
-0.849857
-0.00402186
-0.689179
-0.00457434
-0.564324
-0.00496322
-0.468838
-0.00516569
-0.397639
-0.00524744
-0.347286
-0.00521089
-0.315359
-0.299873
-0.00506274
2.59555
-1212.55
2.15623
-1003.85
1.79099
-831.131
1.48786
-688.148
1.23628
-569.803
1.02759
-471.854
0.854492
-390.797
0.710966
-323.729
0.591952
-268.25
0.493258
-222.372
0.411421
-184.455
0.34353
-153.14
0.287187
-127.306
0.240405
-106.03
0.201518
-88.5487
0.169154
-74.238
0.142162
-62.5838
0.119596
-53.1699
0.100621
-45.6586
0.0845143
-39.78
0.070757
-35.3268
0.0585406
-32.1406
0.0476481
-30.1107
0.0371067
-29.1785
0.0270918
-29.21
0.0182682
-23.4457
0.0116168
-18.8187
0.00675835
-15.1032
0.00375394
-12.1166
0.00210576
-9.71466
0.00136234
-7.78433
0.00112066
-6.23426
0.00106467
-4.99066
0.000960971
-3.99383
0.000707599
-3.1954
0.000254321
-2.55636
-0.000392495
-2.04529
-0.00118202
-1.63713
-0.00202481
-1.31188
-0.00284016
-1.05346
-0.00354297
-0.849155
-0.00409483
-0.688628
-0.00446376
-0.563955
-0.00468703
-0.468616
-0.00475141
-0.397575
-0.00472374
-0.347315
-0.00459931
-0.315484
-0.300081
-0.00439275
2.65112
-1212.01
2.20269
-1003.4
1.82986
-830.758
1.52045
-687.839
1.26366
-569.546
1.05068
-471.642
0.874035
-390.62
0.727583
-323.583
0.606152
-268.129
0.50546
-222.272
0.421969
-184.372
0.352707
-153.071
0.295222
-127.249
0.247486
-105.982
0.207798
-88.509
0.174754
-74.2049
0.147181
-62.5562
0.124106
-53.1469
0.104676
-45.6392
0.0881447
-39.7635
0.0739846
-35.3126
0.0613145
-32.1279
0.0499532
-30.0993
0.0387718
-29.1674
0.0280222
-29.1992
0.0184505
-23.4361
0.0112148
-18.8114
0.00591873
-15.0979
0.00264615
-12.1134
0.000880118
-9.7129
0.000121938
-7.78358
-7.39519e-05
-6.23407
-5.5835e-05
-4.99068
-7.90365e-05
-3.99381
-0.000254122
-3.19523
-0.000626651
-2.55599
-0.00118219
-2.04474
-0.00186198
-1.63645
-0.00256772
-1.31118
-0.00321571
-1.05282
-0.00373115
-0.848641
-0.0040907
-0.688268
-0.00428978
-0.563759
-0.0043624
-0.468543
-0.00431827
-0.397623
-0.00420046
-0.347432
-0.00402164
-0.315665
-0.30032
-0.00378469
2.71001
-1211.46
2.25198
-1002.94
1.87117
-830.377
1.55518
-687.523
1.29298
-569.284
1.07553
-471.424
0.895219
-390.44
0.745747
-323.433
0.621829
-268.005
0.519084
-222.169
0.433896
-184.286
0.363225
-153
0.304567
-127.19
0.255846
-105.934
0.215327
-88.4685
0.18157
-74.1712
0.153378
-62.528
0.129754
-53.1232
0.10982
-45.6192
0.0928054
-39.7465
0.0781717
-35.298
0.0649601
-32.1147
0.0530219
-30.0874
0.0410626
-29.1554
0.0294043
-29.1876
0.0189374
-23.4257
0.0109927
-18.8035
0.00516425
-15.0921
0.00155008
-12.1097
-0.000383748
-9.71097
-0.00118822
-7.78277
-0.00135542
-6.2339
-0.00126989
-4.99077
-0.00120935
-3.99387
-0.00129464
-3.19514
-0.00156754
-2.55571
-0.00200717
-2.0443
-0.00254695
-1.63591
-0.00308405
-1.31065
-0.00353937
-1.05236
-0.00385588
-0.848326
-0.00403039
-0.688094
-0.00407338
-0.563718
-0.00402279
-0.468595
-0.00388955
-0.397758
-0.00370859
-0.347615
-0.00349966
-0.315879
-0.300576
-0.00324665
2.77236
-1210.89
2.30422
-1002.47
1.91505
-829.988
1.59219
-687.2
1.32435
-569.016
1.10229
-471.202
0.918186
-390.256
0.765611
-323.281
0.639142
-267.878
0.534296
-222.064
0.447373
-184.2
0.375262
-152.928
0.315403
-127.13
0.265668
-105.884
0.224289
-88.4271
0.189787
-74.1367
0.160939
-62.4992
0.136721
-53.099
0.116228
-45.5987
0.098666
-39.7289
0.0834791
-35.2828
0.0696278
-32.1008
0.0569896
-30.0747
0.0440971
-29.1425
0.0313342
-29.1748
0.0198088
-23.4142
0.0110157
-18.7947
0.00454868
-15.0856
0.000510137
-12.1057
-0.0016489
-9.70882
-0.00253663
-7.78189
-0.00269572
-6.23375
-0.00255081
-4.99091
-0.00240392
-3.99402
-0.00238883
-3.19516
-0.00254361
-2.55556
-0.00284121
-2.04401
-0.0032111
-1.63554
-0.00355229
-1.31031
-0.00380081
-1.05212
-0.00391603
-0.84821
-0.00392262
-0.688091
-0.00382779
-0.563813
-0.00368293
-0.468745
-0.0034809
-0.397959
-0.00326348
-0.347837
-0.0030264
-0.316116
-0.300841
-0.00276159
2.83832
-1210.32
2.35954
-1001.99
1.96161
-829.59
1.63158
-686.87
1.35788
-568.742
1.13104
-470.975
0.943049
-390.068
0.787289
-323.125
0.658212
-267.749
0.551223
-221.957
0.462533
-184.111
0.388954
-152.854
0.327868
-127.069
0.277095
-105.833
0.234827
-88.3849
0.199545
-74.1014
0.170002
-62.4696
0.145142
-53.0742
0.124031
-45.5776
0.105849
-39.7107
0.0900192
-35.267
0.0754175
-32.0862
0.0619399
-30.0613
0.0479408
-29.1285
0.0338523
-29.1607
0.021087
-23.4014
0.0112896
-18.7849
0.00406519
-15.0784
-0.000491089
-12.1012
-0.00294157
-9.70638
-0.00395606
-7.78087
-0.00413226
-6.23357
-0.00393937
-4.9911
-0.0037059
-3.99426
-0.00357979
-3.19528
-0.00359665
-2.55555
-0.00372578
-2.04388
-0.00389868
-1.63537
-0.00402554
-1.31019
-0.00405902
-1.05209
-0.0039842
-0.848287
-0.00383524
-0.688241
-0.00362873
-0.564022
-0.00340044
-0.468974
-0.00315262
-0.398211
-0.0028999
-0.34809
-0.00263964
-0.316378
-0.301118
-0.00236492
2.90804
-1209.73
2.41808
-1001.5
2.01098
-829.183
1.67349
-686.533
1.39373
-568.462
1.16197
-470.743
0.96997
-389.876
0.810958
-322.966
0.679226
-267.618
0.570062
-221.848
0.479579
-184.02
0.404511
-152.779
0.342178
-127.007
0.290345
-105.781
0.247162
-88.3417
0.211067
-74.0653
0.180787
-62.4394
0.155232
-53.0486
0.133439
-45.5558
0.114557
-39.6919
0.0979838
-35.2504
0.0825082
-32.0708
0.0680345
-30.0468
0.052735
-29.1132
0.0370738
-29.145
0.0228685
-23.3872
0.0118941
-18.7739
0.00378021
-15.0703
-0.0013982
-12.096
-0.00421538
-9.70357
-0.00540724
-7.77969
-0.0056312
-6.23335
-0.00540531
-4.99133
-0.00508656
-3.99458
-0.00483915
-3.19554
-0.00469829
-2.55569
-0.0046346
-2.04395
-0.0045895
-1.63542
-0.00449002
-1.31029
-0.00431118
-1.05227
-0.00405894
-0.848541
-0.00377066
-0.688531
-0.00346722
-0.564329
-0.00316783
-0.469275
-0.00288039
-0.398502
-0.00259533
-0.348375
-0.00231849
-0.316657
-0.301404
-0.0020338
2.98171
-1209.12
2.48
-1001
2.06332
-828.766
1.71806
-686.187
1.43202
-568.176
1.1952
-470.507
0.999118
-389.68
0.836793
-322.804
0.702368
-267.483
0.591004
-221.736
0.498713
-183.928
0.422143
-152.703
0.358548
-126.943
0.305635
-105.728
0.261512
-88.2975
0.224572
-74.0283
0.193512
-62.4083
0.167207
-53.0223
0.144659
-45.5333
0.124989
-39.6722
0.10756
-35.233
0.0910731
-32.0543
0.0754273
-30.0311
0.0586131
-29.0964
0.0411032
-29.1275
0.0252375
-23.3713
0.0128956
-18.7616
0.00374548
-15.0611
-0.00217122
-12.0901
-0.00544063
-9.7003
-0.00686879
-7.77826
-0.00717744
-6.23304
-0.00693725
-4.99156
-0.00653656
-3.99498
-0.00615851
-3.19591
-0.00584177
-2.55601
-0.00556467
-2.04423
-0.00528703
-1.6357
-0.0049573
-1.31062
-0.00457537
-1.05265
-0.0041585
-0.848958
-0.00374706
-0.688945
-0.00335851
-0.56472
-0.00299979
-0.469634
-0.00267737
-0.398828
-0.00236807
-0.348684
-0.00207755
-0.316948
-0.301697
-0.00178558
3.05947
-1208.5
2.54545
-1000.49
2.11876
-828.34
1.76544
-685.834
1.47293
-567.884
1.23092
-470.265
1.03066
-389.48
0.86498
-322.638
0.727838
-267.346
0.614261
-221.623
0.520154
-183.834
0.442074
-152.625
0.37721
-126.878
0.323202
-105.674
0.278117
-88.2525
0.240298
-73.9905
0.208413
-62.3764
0.181297
-52.9952
0.157918
-45.5099
0.137362
-39.6516
0.118952
-35.2146
0.1013
-32.0366
0.0842865
-30.0141
0.0657196
-29.0779
0.0460549
-29.1079
0.0282867
-23.3536
0.0143682
-18.7477
0.00401958
-15.0508
-0.00276434
-12.0833
-0.00658252
-9.69649
-0.00831516
-7.77653
-0.00875226
-6.23261
-0.00852087
-4.9918
-0.00804457
-3.99546
-0.00752853
-3.19644
-0.00702051
-2.55652
-0.00651483
-2.04474
-0.00599616
-1.63623
-0.0054424
-1.31118
-0.00486498
-1.05323
-0.00430164
-0.849526
-0.00377645
-0.689469
-0.00331475
-0.565188
-0.00290026
-0.470047
-0.00254845
-0.399185
-0.00221502
-0.349014
-0.00191569
-0.317249
-0.301992
-0.00162311
3.14153
-1207.87
2.61459
-999.962
2.17746
-827.902
1.81578
-685.472
1.51662
-567.585
1.26929
-470.017
1.0648
-389.275
0.89572
-322.469
0.755847
-267.206
0.640055
-221.507
0.544135
-183.738
0.464549
-152.545
0.398411
-126.812
0.343299
-105.619
0.297231
-88.2064
0.258502
-73.9518
0.225744
-62.3437
0.197754
-52.9672
0.173458
-45.4856
0.151908
-39.6301
0.132378
-35.195
0.113393
-32.0176
0.0947928
-29.9955
0.0742109
-29.0573
0.0520531
-29.0857
0.0321175
-23.3336
0.0163938
-18.732
0.00466797
-15.0391
-0.00312555
-12.0755
-0.00760111
-9.69202
-0.00971616
-7.77441
-0.0103332
-6.23199
-0.010139
-4.99198
-0.0095967
-3.996
-0.0089383
-3.1971
-0.0082279
-2.55724
-0.00748442
-2.04548
-0.00672592
-1.63699
-0.00595349
-1.31195
-0.0051981
-1.05398
-0.00449696
-0.850229
-0.00387419
-0.690095
-0.003337
-0.565726
-0.00287378
-0.470513
-0.00248032
-0.399579
-0.0021155
-0.349381
-0.0017985
-0.317571
-0.302306
-0.00148808
3.22807
-1207.21
2.68759
-999.421
2.23959
-827.454
1.86927
-685.102
1.56325
-567.279
1.3105
-469.765
1.10172
-389.066
0.929225
-322.296
0.786622
-267.064
0.668627
-221.389
0.570907
-183.64
0.489825
-152.464
0.422419
-126.745
0.366198
-105.563
0.31913
-88.1593
0.279457
-73.9121
0.245777
-62.31
0.216843
-52.9383
0.191537
-45.4603
0.168877
-39.6074
0.148073
-35.1742
0.127568
-31.9971
0.10714
-29.9751
0.0842553
-29.0344
0.0592321
-29.0607
0.0368397
-23.3112
0.0190626
-18.7142
0.00576334
-15.0258
-0.00319631
-12.0666
-0.00845071
-9.68677
-0.0110369
-7.77182
-0.0118935
-6.23114
-0.0117711
-4.99211
-0.0111769
-3.9966
-0.0103763
-3.1979
-0.00945867
-2.55816
-0.0084766
-2.04647
-0.00748241
-1.63799
-0.00650415
-1.31293
-0.00558321
-1.05491
-0.00475587
-0.851056
-0.0040413
-0.690813
-0.0034352
-0.566331
-0.00292288
-0.471029
-0.00248879
-0.40001
-0.00209515
-0.349778
-0.00174649
-0.317917
-0.30264
-0.00141032
3.31929
-1206.54
2.76465
-998.867
2.30532
-826.995
1.92606
-684.723
1.61301
-566.966
1.35475
-469.506
1.14163
-388.853
0.965722
-322.12
0.820403
-266.918
0.700228
-221.269
0.600733
-183.541
0.518177
-152.381
0.449514
-126.676
0.392184
-105.506
0.344102
-88.1112
0.303453
-73.8715
0.2688
-62.2753
0.238847
-52.9083
0.212432
-45.4339
0.188531
-39.5835
0.166285
-35.152
0.144055
-31.9749
0.121534
-29.9526
0.0960308
-29.0089
0.067735
-29.0324
0.042571
-23.2861
0.0224721
-18.6941
0.00738543
-15.0107
-0.00291161
-12.0563
-0.00907981
-9.68061
-0.0122373
-7.76866
-0.0134025
-6.22997
-0.0133931
-4.99211
-0.0127666
-3.99723
-0.0118303
-3.19884
-0.0107083
-2.55928
-0.00949333
-2.04769
-0.00827313
-1.63921
-0.00710274
-1.3141
-0.00602557
-1.05598
-0.00507979
-0.852003
-0.00427662
-0.691618
-0.00359854
-0.567009
-0.00303198
-0.471598
-0.00254894
-0.400492
-0.00211261
-0.350215
-0.00173715
-0.3183
-0.303011
-0.00137173
3.41541
-1205.86
2.84594
-998.297
2.37484
-826.524
1.98634
-684.334
1.6661
-566.645
1.40224
-469.242
1.18476
-388.636
1.00545
-321.941
0.857441
-266.77
0.735124
-221.147
0.633892
-183.44
0.549891
-152.297
0.479993
-126.606
0.421559
-105.447
0.37245
-88.0622
0.330795
-73.8298
0.295115
-62.2397
0.264064
-52.8773
0.23643
-45.4063
0.211148
-39.5582
0.187276
-35.1281
0.163097
-31.9507
0.138191
-29.9277
0.109726
-28.9804
0.077714
-29.0004
0.049437
-23.2578
0.0267275
-18.6714
0.00962065
-14.9936
-0.00220034
-12.0445
-0.00943111
-9.67338
-0.013272
-7.76482
-0.0148247
-6.22843
-0.0149777
-4.99196
-0.0143457
-3.99787
-0.013287
-3.1999
-0.0119708
-2.56061
-0.0105334
-2.04913
-0.00910287
-1.64064
-0.00774694
-1.31545
-0.00652817
-1.05721
-0.00546758
-0.853061
-0.00458759
-0.692504
-0.00384417
-0.567749
-0.00324095
-0.472208
-0.00271323
-0.401014
-0.00225989
-0.350675
-0.00184067
-0.318714
-0.303414
-0.00143217
3.51664
-1205.15
2.93166
-997.712
2.44832
-826.041
2.05031
-683.936
1.72271
-566.318
1.45318
-468.973
1.23134
-388.414
1.04864
-321.758
0.897996
-266.62
0.773589
-221.022
0.670671
-183.337
0.585268
-152.212
0.514162
-126.535
0.454635
-105.388
0.404492
-88.012
0.3618
-73.7871
0.325035
-62.2029
0.292803
-52.845
0.263832
-45.3773
0.237017
-39.5314
0.211317
-35.1024
0.184944
-31.9243
0.157337
-29.9001
0.125536
-28.9486
0.089328
-28.9642
0.0575692
-23.226
0.0319403
-18.6458
0.0125619
-14.9742
-0.000985263
-12.0309
-0.00944156
-9.66492
-0.0140902
-7.76016
-0.0161199
-6.2264
-0.0164937
-4.99159
-0.0158905
-3.99847
-0.014731
-3.20107
-0.0132381
-2.5621
-0.0115975
-2.05078
-0.00996681
-1.64227
-0.00844241
-1.31698
-0.00708271
-1.05857
-0.00591904
-0.854229
-0.00495602
-0.693468
-0.00416143
-0.56855
-0.00351055
-0.472857
-0.00295537
-0.401575
-0.00246975
-0.351157
-0.00201184
-0.319174
-0.303863
-0.00156496
3.62322
-1204.42
3.02203
-997.111
2.52598
-825.545
2.11816
-683.528
1.78305
-565.983
1.5078
-468.698
1.28159
-388.188
1.09556
-321.572
0.942337
-266.466
0.815908
-220.896
0.711366
-183.232
0.624613
-152.125
0.552335
-126.463
0.491734
-105.327
0.440552
-87.9608
0.396791
-73.7434
0.358885
-62.165
0.32538
-52.8115
0.294947
-45.3469
0.266434
-39.5029
0.238686
-35.0746
0.209857
-31.8955
0.179204
-29.8694
0.143663
-28.9131
0.102742
-28.9233
0.0671048
-23.1904
0.0382276
-18.6169
0.0163076
-14.9523
0.000816564
-12.0154
-0.00904244
-9.65506
-0.0146361
-7.75458
-0.0172432
-6.2238
-0.0179059
-4.99093
-0.0173756
-3.99901
-0.0161468
-3.2023
-0.0145057
-2.56375
-0.0126839
-2.0526
-0.0108735
-1.64408
-0.00918997
-1.31867
-0.00769445
-1.06006
-0.00642701
-0.855501
-0.00537957
-0.694515
-0.00452663
-0.569408
-0.00382739
-0.473554
-0.00324112
-0.402167
-0.00272727
-0.351666
-0.00224936
-0.319652
-0.304326
-0.0017877
3.73539
-1203.67
3.11725
-996.493
2.60801
-825.035
2.19009
-683.11
1.84733
-565.64
1.56632
-468.417
1.33577
-387.957
1.14646
-321.383
0.990737
-266.311
0.862368
-220.767
0.756278
-183.126
0.668236
-152.037
0.594833
-126.389
0.533179
-105.265
0.480956
-87.9086
0.436097
-73.6985
0.396988
-62.1259
0.362115
-52.7766
0.330086
-45.3148
0.299697
-39.4725
0.269668
-35.0446
0.238095
-31.8639
0.204026
-29.8353
0.164312
-28.8734
0.118124
-28.8771
0.0781839
-23.1504
0.0457106
-18.5845
0.0209611
-14.9275
0.00329274
-11.9978
-0.00816073
-9.6436
-0.0148491
-7.74788
-0.0181452
-6.2205
-0.0191753
-4.9899
-0.0187732
-3.99941
-0.0175179
-3.20356
-0.015766
-2.56551
-0.0137943
-2.05458
-0.011826
-1.64606
-0.00999395
-1.3205
-0.00836277
-1.0617
-0.00698227
-0.856886
-0.00583409
-0.695663
-0.00490457
-0.570344
-0.00413258
-0.474323
-0.00349337
-0.402813
-0.00292471
-0.352229
-0.00239955
-0.320179
-0.304831
-0.00189675
3.85343
-1202.9
3.2176
-995.857
2.69467
-824.512
2.26637
-682.682
1.91582
-565.289
1.62902
-468.13
1.39417
-387.722
1.20166
-321.191
1.04353
-266.153
0.913322
-220.637
0.805773
-183.019
0.716519
-151.948
0.642043
-126.315
0.579367
-105.203
0.526106
-87.8553
0.48012
-73.6525
0.439746
-62.0855
0.403405
-52.7403
0.369636
-45.2811
0.337181
-39.4401
0.304619
-35.012
0.269996
-31.8293
0.232117
-29.7975
0.187763
-28.829
0.135721
-28.825
0.0910272
-23.1058
0.0545924
-18.548
0.0267091
-14.8997
0.00661584
-11.9777
-0.00663679
-9.63035
-0.0145812
-7.73994
-0.018689
-6.21641
-0.0201765
-4.98842
-0.0199694
-3.99963
-0.0187418
-3.20479
-0.0169252
-2.56733
-0.0148466
-2.05666
-0.0127455
-1.64815
-0.0107881
-1.32246
-0.00902496
-1.06346
-0.00753127
-0.858387
-0.00626673
-0.696924
-0.00523831
-0.571379
-0.00436475
-0.47519
-0.0036474
-0.403535
-0.0029935
-0.352875
-0.00242392
-0.320748
-0.305364
-0.00189295
3.97758
-1202.11
3.32327
-995.203
2.78614
-823.975
2.34717
-682.243
1.9887
-564.931
1.69608
-467.837
1.45698
-387.483
1.26136
-320.995
1.10094
-265.992
0.968989
-220.505
0.860081
-182.91
0.769695
-151.858
0.694208
-126.239
0.630544
-105.139
0.576248
-87.801
0.529107
-73.6054
0.487402
-62.0438
0.449486
-52.7024
0.413827
-45.2454
0.379104
-39.4053
0.34374
-34.9767
0.305739
-31.7913
0.263629
-29.7553
0.214141
-28.7795
0.155625
-28.7665
0.105699
-23.0558
0.0649203
-18.5073
0.0335831
-14.8683
0.0108031
-11.9549
-0.00446682
-9.61507
-0.0138411
-7.73056
-0.0188953
-6.21135
-0.0209426
-4.98637
-0.0210104
-3.99956
-0.0198749
-3.20593
-0.0180538
-2.56916
-0.0159136
-2.0588
-0.0137272
-1.65034
-0.0116688
-1.32452
-0.00980554
-1.06533
-0.00820303
-0.859989
-0.0068396
-0.698292
-0.00569666
-0.572518
-0.00472317
-0.476166
-0.00390569
-0.404352
-0.00313665
-0.35364
-0.00253802
-0.321373
-0.305948
-0.0019779
4.10813
-1201.29
3.4345
-994.529
2.88263
-823.423
2.43267
-681.793
2.06615
-564.564
1.7677
-467.539
1.5244
-387.24
1.32576
-320.796
1.16315
-265.829
1.02959
-220.372
0.919426
-182.799
0.827999
-151.766
0.751565
-126.163
0.68695
-105.075
0.631624
-87.7457
0.583299
-73.5571
0.540195
-62.0007
0.500592
-52.6628
0.462882
-45.2077
0.425676
-39.3681
0.387226
-34.9382
0.345501
-31.7496
0.298716
-29.7086
0.243568
-28.7244
0.177926
-28.7009
0.122267
-23.0002
0.0767472
-18.4618
0.0416225
-14.8332
0.0158808
-11.9292
-0.00163732
-9.59755
-0.0126277
-7.71958
-0.0187747
-6.20522
-0.0214975
-4.98366
-0.0219325
-3.99914
-0.0209665
-3.20691
-0.0192059
-2.57092
-0.0170665
-2.06094
-0.0148431
-1.65257
-0.0127318
-1.32664
-0.0108036
-1.06726
-0.00913537
-0.861656
-0.00769843
-0.699732
-0.00648869
-0.573726
-0.00544575
-0.477213
-0.00454902
-0.405241
-0.00371962
-0.354478
-0.00298983
-0.322077
-0.306603
-0.00231092
4.24538
-1200.44
3.55157
-993.835
2.98439
-822.856
2.52314
-681.332
2.14843
-564.19
1.84412
-467.234
1.5967
-386.993
1.39515
-320.595
1.23048
-265.665
1.09543
-220.237
0.984128
-182.688
0.891755
-151.674
0.814446
-126.086
0.748923
-105.009
0.692576
-87.6894
0.643036
-73.5075
0.598463
-61.9561
0.557058
-52.6214
0.51713
-45.1678
0.477215
-39.3282
0.435382
-34.8964
0.389564
-31.7038
0.337639
-29.6566
0.276281
-28.663
0.202838
-28.6274
0.140923
-22.9383
0.0902523
-18.4111
0.050996
-14.7939
0.0220058
-11.9002
0.00199831
-9.57753
-0.0108024
-7.70677
-0.0181986
-6.19782
-0.0217244
-4.98014
-0.0226309
-3.99823
-0.0219199
-3.20763
-0.0202926
-2.57255
-0.018216
-2.06302
-0.0160062
-1.65478
-0.0138827
-1.32876
-0.0119153
-1.06923
-0.0101986
-0.863375
-0.00869124
-0.701247
-0.00740807
-0.57501
-0.00626609
-0.478361
-0.00528535
-0.406228
-0.00431913
-0.355444
-0.0035028
-0.322927
-0.3074
-0.00273593
4.38965
-1199.57
3.67475
-993.12
3.09168
-822.273
2.61879
-680.859
2.23575
-563.807
1.92559
-466.924
1.67409
-386.741
1.46975
-320.39
1.30315
-265.498
1.16674
-220.1
1.05443
-182.576
0.961209
-151.581
0.8831
-126.008
0.816712
-104.943
0.759352
-87.632
0.70857
-73.4567
0.662455
-61.91
0.619126
-52.5781
0.576807
-45.1255
0.533945
-39.2853
0.488419
-34.8509
0.438125
-31.6535
0.380579
-29.5991
0.312435
-28.5949
0.230493
-28.5455
0.161782
-22.8696
0.105543
-18.3549
0.061803
-14.7502
0.0292699
-11.8677
0.00652484
-9.55479
-0.00829195
-7.69196
-0.0171053
-6.18902
-0.0215727
-4.97568
-0.0230649
-3.99675
-0.0226989
-3.208
-0.0212809
-2.57397
-0.0193254
-2.06498
-0.0171781
-1.65694
-0.0150784
-1.33086
-0.0131051
-1.07121
-0.0113684
-0.865114
-0.00981706
-0.702805
-0.00849605
-0.576334
-0.0072956
-0.479571
-0.00625417
-0.407267
-0.00522732
-0.356485
-0.0042685
-0.323862
-0.308279
-0.00336514
4.54126
-1198.67
3.80431
-992.383
3.20474
-821.673
2.71987
-680.374
2.32834
-563.415
2.01229
-466.608
1.75679
-386.486
1.54976
-320.183
1.38137
-265.33
1.24373
-219.963
1.13052
-182.463
1.03657
-151.487
0.957733
-125.929
0.890525
-104.875
0.832161
-87.5736
0.780105
-73.4047
0.732373
-61.8623
0.686995