/*--------------------------------*- C++ -*----------------------------------*\
| =========                 |                                                 |
| \\      /  F ield         | OpenFOAM: The Open Source CFD Toolbox           |
|  \\    /   O peration     | Version:  2406                                  |
|   \\  /    A nd           | Website:  www.openfoam.com                      |
|    \\/     M anipulation  |                                                 |
\*---------------------------------------------------------------------------*/
FoamFile
{
    version     2.0;
    format      ascii;
    arch        "LSB;label=32;scalar=64";
    class       volVectorField;
    location    "10";
    object      U;
}
// * * * * * * * * * * * * * * * * * * * * * * * * * * * * * * * * * * * * * //

dimensions      [0 1 -1 0 0 0 0];

internalField   nonuniform List<vector> 
38016
(
(51.3092 9.04505 -1.00305e-27)
(51.3079 9.04911 -2.40771e-26)
(51.3095 9.0475 2.90798e-26)
(51.3098 9.04811 0)
(51.3105 9.0476 0)
(51.3112 9.04705 0)
(51.3122 9.04629 4.60084e-25)
(51.3134 9.04512 5.22056e-21)
(51.3151 9.04342 -1.45461e-24)
(51.3168 9.04139 1.75461e-24)
(51.3189 9.03887 6.86585e-21)
(51.3211 9.03523 -1.59903e-24)
(51.3231 9.03005 8.90586e-21)
(51.3259 9.02211 1.37142e-20)
(51.3292 9.01074 -1.01278e-20)
(51.3364 8.99406 0)
(51.3464 8.97194 0)
(51.3665 8.94172 0)
(51.3968 8.9012 1.70226e-23)
(51.441 8.84725 -1.95382e-23)
(51.5038 8.77741 6.14753e-21)
(51.6145 8.6721 -7.81708e-21)
(51.6904 8.55285 8.58011e-21)
(51.9116 8.38739 -4.85704e-23)
(52.0554 8.1831 1.34175e-20)
(52.4281 7.97213 -1.93258e-25)
(52.6953 7.81407 1.04531e-20)
(53.0437 7.7435 -1.17076e-22)
(53.3293 7.73852 -1.85739e-25)
(53.5773 7.79359 0)
(53.7879 7.88552 -1.8217e-25)
(53.9633 7.9982 -2.59087e-22)
(54.1159 8.11379 1.09681e-20)
(54.2504 8.21976 0)
(54.3708 8.3067 0)
(54.4788 8.36756 0)
(54.5752 8.39691 0)
(54.6551 8.39178 2.00902e-21)
(54.7158 8.35079 1.16568e-21)
(54.7513 8.27457 -6.88925e-23)
(54.7578 8.16817 -9.48309e-23)
(54.7323 8.03725 -2.94988e-21)
(54.6725 7.89963 5.53325e-22)
(54.598 7.69065 -6.15717e-22)
(54.4332 7.66571 0)
(54.319 7.52625 0)
(54.2575 7.16494 2.31208e-21)
(54.1708 6.64446 -2.13207e-21)
(51.3092 9.04493 3.37364e-23)
(51.3079 9.04906 -9.34917e-26)
(51.3095 9.04742 -1.7948e-21)
(51.3098 9.04803 0)
(51.3105 9.04751 0)
(51.3112 9.04694 6.84195e-21)
(51.3122 9.04614 -2.88112e-26)
(51.3134 9.04492 -5.22286e-21)
(51.3152 9.04314 9.58393e-21)
(51.3169 9.04101 1.22986e-24)
(51.3191 9.03832 6.94129e-21)
(51.3214 9.03444 3.24665e-24)
(51.3237 9.02891 -8.90515e-21)
(51.327 9.02048 -1.37116e-20)
(51.3306 9.0084 1.01225e-20)
(51.3385 8.99076 -2.95615e-20)
(51.3493 8.96732 -2.01853e-20)
(51.3706 8.9353 2.73101e-23)
(51.4024 8.89256 2.39419e-24)
(51.4485 8.83568 -3.92507e-23)
(51.5141 8.76173 -1.85037e-20)
(51.6296 8.65256 2.35725e-20)
(51.7027 8.52681 -8.62343e-21)
(51.9372 8.35394 -2.29423e-20)
(52.0884 8.13784 1.3366e-20)
(52.4782 7.91108 5.87081e-23)
(52.745 7.74014 -1.03464e-20)
(53.0982 7.65917 -3.35958e-20)
(53.3864 7.64968 2.48998e-20)
(53.633 7.70399 0)
(53.8405 7.79843 0)
(54.0124 7.91544 -1.65495e-20)
(54.1601 8.0356 -1.06524e-20)
(54.2903 8.14516 1.39185e-20)
(54.4053 8.234 0)
(54.5074 8.295 -1.09647e-20)
(54.597 8.32278 0)
(54.6688 8.31479 -2.00961e-21)
(54.7208 8.27055 2.40202e-21)
(54.7465 8.19182 -2.98401e-21)
(54.7418 8.08467 3.49497e-21)
(54.7049 7.95571 9.80555e-22)
(54.633 7.82508 6.03553e-22)
(54.5514 7.6206 -6.78891e-22)
(54.3715 7.61223 0)
(54.2459 7.51139 0)
(54.1936 7.1642 1.883e-21)
(54.1197 6.59948 -2.34769e-21)
(51.3092 9.04481 -1.23119e-23)
(51.3079 9.04902 0)
(51.3095 9.04735 3.52167e-21)
(51.3098 9.04797 0)
(51.3105 9.04744 0)
(51.3112 9.04684 -6.84432e-21)
(51.3122 9.04601 2.30972e-25)
(51.3134 9.04475 -3.82072e-25)
(51.3152 9.04291 -9.58719e-21)
(51.3169 9.0407 1.23609e-24)
(51.319 9.03788 -1.38215e-20)
(51.3213 9.03382 -2.28761e-20)
(51.3234 9.02803 3.604e-20)
(51.3265 9.0192 2.74934e-23)
(51.3297 9.00653 -1.83016e-23)
(51.3372 8.98801 2.95574e-20)
(51.3471 8.96336 2.01909e-20)
(51.3676 8.92962 -2.59764e-24)
(51.3984 8.88455 3.1984e-23)
(51.443 8.82449 0)
(51.5071 8.74607 3.71958e-20)
(51.6214 8.63111 -1.57584e-20)
(51.6898 8.49743 1.71271e-20)
(51.923 8.31376 4.59148e-20)
(52.0639 8.08341 -1.76486e-23)
(52.4578 7.84069 0)
(52.7249 7.65698 -4.21066e-20)
(53.0815 7.5679 3.33502e-20)
(53.3736 7.55562 -2.47313e-20)
(53.623 7.61107 0)
(53.8331 7.70961 -8.11139e-22)
(54.0076 7.83208 -1.50054e-20)
(54.1574 7.9575 -2.73101e-21)
(54.2898 8.07107 -1.04213e-20)
(54.4058 8.16218 1.57246e-20)
(54.5081 8.22377 1.09731e-20)
(54.5963 8.25079 0)
(54.6651 8.24119 8.42999e-21)
(54.7127 8.19552 -2.46784e-21)
(54.7327 8.11687 3.06611e-21)
(54.7214 8.01209 -6.95595e-21)
(54.6772 7.8886 4.25583e-21)
(54.5988 7.76661 -5.75453e-21)
(54.5119 7.57422 1.71358e-21)
(54.3303 7.57806 5.31705e-22)
(54.2002 7.49739 7.7393e-21)
(54.1416 7.17638 -6.14451e-23)
(54.0729 6.61878 4.76592e-21)
(51.3092 9.04469 -3.85756e-23)
(51.3079 9.04897 0)
(51.3094 9.04728 -1.72618e-21)
(51.3098 9.0479 -6.7929e-25)
(51.3105 9.04735 -1.53803e-20)
(51.3112 9.04674 5.31238e-25)
(51.3122 9.04588 1.22697e-20)
(51.3134 9.04458 0)
(51.3152 9.04268 1.93097e-20)
(51.3168 9.04037 0)
(51.3189 9.03743 -2.79382e-20)
(51.3212 9.03319 2.28895e-20)
(51.3232 9.02712 -3.60535e-20)
(51.3262 9.01787 -1.22911e-23)
(51.3291 9.00459 -4.13028e-20)
(51.3364 8.98518 -5.99117e-20)
(51.3459 8.95926 4.2495e-23)
(51.3662 8.92374 -5.00173e-23)
(51.3966 8.87631 0)
(51.4406 8.81301 4.18103e-20)
(51.5042 8.73012 -4.9811e-20)
(51.617 8.6097 3.19433e-20)
(51.6842 8.46817 -5.12315e-20)
(51.9129 8.27433 -2.31183e-20)
(52.0526 8.02964 -2.66057e-20)
(52.4395 7.77106 -2.38225e-22)
(52.7059 7.57409 -2.19768e-23)
(53.059 7.47592 6.86945e-20)
(53.3529 7.45994 -5.14762e-20)
(53.604 7.51544 0)
(53.8167 7.61688 0)
(53.9945 7.74357 -5.09574e-22)
(54.1469 7.87304 2.24196e-20)
(54.2819 7.98961 0)
(54.3989 8.08228 -1.79498e-20)
(54.5008 8.144 0)
(54.5862 8.17026 0)
(54.6503 8.15968 -8.43858e-21)
(54.6906 8.11395 5.36796e-21)
(54.7013 8.03762 6.07645e-21)
(54.6792 7.93828 -7.47834e-21)
(54.6232 7.8242 -4.34307e-21)
(54.535 7.71455 -9.53262e-21)
(54.4354 7.54189 1.14248e-20)
(54.2535 7.56244 0)
(54.1205 7.49517 9.86185e-23)
(54.0474 7.20175 1.31999e-20)
(53.9634 6.69011 -1.30371e-20)
(51.3091 9.04456 1.71404e-23)
(51.3079 9.04893 3.41762e-25)
(51.3094 9.0472 -3.17751e-21)
(51.3098 9.04783 8.2448e-21)
(51.3104 9.04727 1.53857e-20)
(51.3112 9.04664 1.36569e-20)
(51.3122 9.04575 1.22766e-20)
(51.3134 9.0444 0)
(51.3152 9.04243 -1.93171e-20)
(51.3168 9.04004 4.45766e-25)
(51.3189 9.03696 2.79402e-20)
(51.3211 9.03252 4.96822e-24)
(51.323 9.02616 0)
(51.326 9.01647 -1.54939e-23)
(51.3287 9.00253 4.13373e-20)
(51.3359 8.98218 5.99353e-20)
(51.345 8.95492 4.1064e-20)
(51.365 8.91751 -5.43021e-20)
(51.3951 8.8676 0)
(51.4387 8.80093 -8.38234e-20)
(51.5021 8.71337 2.49736e-20)
(51.6139 8.58739 -3.20193e-20)
(51.6805 8.43775 6.83292e-20)
(51.9068 8.23351 9.73555e-23)
(52.0469 7.97406 -9.72853e-23)
(52.4298 7.69884 -2.39803e-22)
(52.6971 7.48797 8.59343e-20)
(53.0482 7.37962 -6.92146e-20)
(53.3444 7.35933 -5.8533e-22)
(53.5974 7.41434 0)
(53.812 7.51827 1.6716e-21)
(53.9919 7.64901 3.21184e-20)
(54.1454 7.78262 -2.24334e-20)
(54.2808 7.90268 0)
(54.3966 7.99788 0)
(54.4955 8.06124 2.32288e-20)
(54.5754 8.08905 -7.048e-21)
(54.6317 8.0807 8.79157e-21)
(54.6616 8.03916 -8.56648e-23)
(54.66 7.9704 -1.30223e-20)
(54.625 7.88278 7.61413e-21)
(54.5557 7.78521 8.81688e-21)
(54.4564 7.69515 1.97341e-20)
(54.3434 7.54993 -2.65761e-20)
(54.1635 7.59389 -2.43211e-20)
(54.0297 7.54367 2.77981e-20)
(53.9481 7.28308 1.79103e-21)
(53.8568 6.82839 1.79212e-21)
(51.3091 9.04443 0)
(51.3079 9.04888 0)
(51.3094 9.04712 3.17768e-21)
(51.3098 9.04776 -8.24709e-21)
(51.3104 9.04718 0)
(51.3112 9.04653 -1.36618e-20)
(51.3122 9.04561 -2.45611e-20)
(51.3134 9.04421 1.12239e-24)
(51.3151 9.04218 0)
(51.3168 9.03968 0)
(51.3188 9.03646 5.6473e-20)
(51.321 9.03182 0)
(51.3228 9.02514 0)
(51.3257 9.01499 5.67745e-20)
(51.3282 9.00037 8.36922e-20)
(51.3352 8.97902 -6.06744e-20)
(51.344 8.95035 -4.10368e-20)
(51.3636 8.91098 1.08804e-19)
(51.3933 8.85848 6.49711e-23)
(51.4363 8.78831 4.19271e-20)
(51.4993 8.69589 -5.03435e-20)
(51.6095 8.5642 0)
(51.6758 8.40618 -3.41255e-20)
(51.8983 8.19126 0)
(52.0386 7.91652 0)
(52.4161 7.62403 2.41319e-22)
(52.6848 7.39857 -1.29302e-19)
(53.0332 7.27932 6.99898e-20)
(53.3316 7.25423 5.21109e-20)
(53.5862 7.30842 0)
(53.8026 7.41474 5.06227e-20)
(53.9843 7.54968 2.11607e-21)
(54.1385 7.68782 4.91025e-20)
(54.2737 7.81212 2.23878e-20)
(54.3876 7.91097 9.34298e-21)
(54.4826 7.97762 -5.27104e-20)
(54.5559 8.00922 7.17829e-21)
(54.6034 8.0061 -8.95625e-21)
(54.6221 7.97252 -1.08764e-20)
(54.6078 7.91575 1.91082e-20)
(54.5602 7.84479 -2.33466e-20)
(54.4786 7.76848 -1.75463e-20)
(54.3702 7.70249 2.68225e-20)
(54.2483 7.58741 2.93366e-21)
(54.0741 7.65733 -2.56904e-20)
(53.942 7.62748 2.75354e-20)
(53.8599 7.40285 -1.7941e-21)
(53.7715 7.00318 -1.7962e-21)
(51.3091 9.04429 -6.82554e-27)
(51.308 9.04883 0)
(51.3094 9.04704 -2.90446e-21)
(51.3098 9.04769 1.31472e-24)
(51.3104 9.04709 -2.3651e-24)
(51.3112 9.04642 4.98138e-24)
(51.3122 9.04547 2.45725e-20)
(51.3134 9.04401 -4.25493e-20)
(51.3151 9.04191 0)
(51.3167 9.03932 6.83302e-20)
(51.3187 9.03595 -5.64939e-20)
(51.3209 9.03109 -6.69636e-24)
(51.3226 9.02409 8.05478e-24)
(51.3254 9.01346 -5.67958e-20)
(51.3277 8.99812 -8.37009e-20)
(51.3345 8.97573 6.0638e-20)
(51.3429 8.9456 3.81249e-23)
(51.3622 8.90418 -5.45518e-20)
(51.3915 8.849 -6.5297e-23)
(51.4338 8.77519 0)
(51.4964 8.67777 5.05655e-20)
(51.6047 8.54024 6.47926e-20)
(51.6712 8.37363 0)
(51.8891 8.14786 0)
(52.0299 7.85743 -2.77396e-22)
(52.4008 7.54718 3.45594e-22)
(52.6712 7.30662 8.624e-20)
(53.0162 7.17587 -7.00184e-20)
(53.3167 7.14558 -8.97639e-22)
(53.5729 7.19874 2.38108e-21)
(53.7911 7.3074 -5.56281e-20)
(53.9747 7.44672 7.11221e-20)
(54.1297 7.58976 -4.33572e-20)
(54.2643 7.71894 -5.99497e-20)
(54.3759 7.82243 0)
(54.4667 7.89377 2.36256e-20)
(54.5331 7.93106 7.30273e-21)
(54.5715 7.93564 -2.7338e-20)
(54.5792 7.91299 2.19776e-20)
(54.5531 7.87149 -1.33738e-20)
(54.4948 7.82033 0)
(54.4041 7.76769 -4.59775e-21)
(54.2907 7.72744 1.69833e-22)
(54.1666 7.6422 2.42324e-20)
(54.0016 7.737 -5.91348e-20)
(53.876 7.72743 1.2323e-21)
(53.7996 7.53769 3.2556e-20)
(53.7226 7.18692 -4.21859e-21)
(51.3091 9.04415 1.76916e-22)
(51.308 9.04878 5.50428e-21)
(51.3094 9.04696 -2.62749e-21)
(51.3098 9.04761 -1.62383e-20)
(51.3104 9.047 7.93884e-25)
(51.3112 9.0463 -2.8509e-24)
(51.3122 9.04532 -4.91687e-20)
(51.3134 9.04381 4.25667e-20)
(51.3151 9.04163 -5.32789e-25)
(51.3167 9.03893 -6.83574e-20)
(51.3186 9.03541 0)
(51.3208 9.03033 9.42385e-20)
(51.3224 9.02299 1.05107e-23)
(51.3252 9.01186 -1.26192e-23)
(51.3272 8.99578 -2.31019e-23)
(51.3338 8.9723 -1.22836e-19)
(51.3418 8.94066 -4.34093e-23)
(51.3607 8.8971 5.1094e-23)
(51.3895 8.83914 0)
(51.4312 8.7616 0)
(51.4936 8.65902 0)
(51.5997 8.51554 -6.50608e-20)
(51.6667 8.34017 -2.01384e-23)
(51.8797 8.10341 4.63179e-20)
(52.0217 7.797 0)
(52.3853 7.4686 0)
(52.6578 7.21248 0)
(52.999 7.06971 -7.11724e-20)
(53.3016 7.03381 1.07563e-19)
(53.5597 7.08571 -7.98837e-20)
(53.78 7.19665 -4.69326e-20)
(53.9654 7.34049 -8.02355e-20)
(54.1213 7.48879 -4.1646e-20)
(54.255 7.62349 3.01903e-20)
(54.3642 7.73259 0)
(54.4503 7.81002 0)
(54.5096 7.85484 1.53142e-20)
(54.539 7.86942 1.82467e-20)
(54.5367 7.86025 -1.1102e-20)
(54.5007 7.83653 1.33912e-20)
(54.4346 7.80709 -3.16983e-20)
(54.3386 7.77894 7.64778e-20)
(54.2254 7.76418 -5.11632e-20)
(54.1045 7.70649 0)
(53.953 7.82354 5.70742e-20)
(53.8365 7.83176 -6.52351e-20)
(53.771 7.67336 -4.40505e-21)
(53.7106 7.36237 4.23017e-21)
(51.3091 9.04401 -4.09048e-22)
(51.308 9.04872 -5.50706e-21)
(51.3094 9.04687 5.53399e-21)
(51.3098 9.04753 1.62456e-20)
(51.3104 9.04691 0)
(51.3112 9.04618 -2.12578e-24)
(51.3121 9.04516 -2.45964e-20)
(51.3134 9.0436 0)
(51.3151 9.04135 7.86742e-20)
(51.3166 9.03854 0)
(51.3186 9.03486 -2.1097e-24)
(51.3207 9.02955 -9.42716e-20)
(51.3222 9.02186 0)
(51.3249 9.0102 0)
(51.3267 8.99335 -2.32478e-23)
(51.3331 8.96875 1.2297e-19)
(51.3407 8.93553 -3.85645e-23)
(51.3593 8.88976 1.10913e-19)
(51.3876 8.82894 0)
(51.4287 8.74754 0)
(51.4907 8.63969 0)
(51.5946 8.49015 1.26429e-22)
(51.6625 8.30589 -1.34975e-22)
(51.8699 8.05805 -4.61747e-20)
(52.0135 7.73543 0)
(52.3689 7.38852 0)
(52.6439 7.11644 -8.73136e-20)
(52.9811 6.96111 1.4193e-19)
(53.2859 6.91919 1.00755e-21)
(53.5462 6.96962 7.73595e-20)
(53.7687 7.08277 5.3613e-20)
(53.9562 7.23128 -7.29825e-20)
(54.113 7.38526 4.74259e-20)
(54.2457 7.52617 0)
(54.3525 7.64193 0)
(54.4339 7.7269 -6.15135e-20)
(54.4864 7.78108 1.56624e-20)
(54.5075 7.80779 1.85488e-20)
(54.4966 7.81433 -2.29801e-20)
(54.4532 7.81014 -1.39176e-20)
(54.3827 7.80314 3.25053e-20)
(54.2857 7.79899 -3.99646e-20)
(54.1773 7.80796 0)
(54.0638 7.77457 0)
(53.9283 7.91008 1.15513e-20)
(53.8228 7.93236 0)
(53.7715 7.80023 9.09671e-21)
(53.7289 7.51878 0)
(51.309 9.04386 2.32735e-22)
(51.308 9.04867 0)
(51.3094 9.04679 4.98707e-21)
(51.3098 9.04745 1.60736e-20)
(51.3104 9.04681 3.00625e-20)
(51.3112 9.04605 4.25187e-24)
(51.3121 9.045 9.84197e-20)
(51.3134 9.04338 7.91606e-24)
(51.3151 9.04105 -7.87051e-20)
(51.3166 9.03813 -3.63803e-24)
(51.3185 9.03428 -1.15389e-19)
(51.3206 9.02873 0)
(51.322 9.02068 0)
(51.3246 9.00848 0)
(51.3262 8.99082 8.59035e-20)
(51.3323 8.96507 -1.24445e-19)
(51.3396 8.93021 8.44558e-20)
(51.3578 8.88217 -1.11012e-19)
(51.3857 8.81839 6.63141e-23)
(51.4261 8.73304 0)
(51.4879 8.61979 -1.09088e-22)
(51.5892 8.46413 1.19928e-22)
(51.6584 8.27087 0)
(51.8598 8.0119 9.20855e-20)
(52.0054 7.67289 -2.79251e-22)
(52.3519 7.30718 3.4796e-22)
(52.6295 7.01875 8.81513e-20)
(52.9627 6.85036 5.1092e-22)
(53.2697 6.80197 -1.068e-19)
(53.5323 6.8507 -8.12613e-20)
(53.7574 6.96598 -3.55636e-21)
(53.9471 7.11935 7.74476e-20)
(54.105 7.27946 0)
(54.2367 7.4273 0)
(54.341 7.55081 3.97985e-20)
(54.4179 7.64478 4.93391e-20)
(54.4642 7.71008 -3.06243e-20)
(54.4781 7.75077 -1.91132e-20)
(54.4609 7.77468 -3.69835e-22)
(54.4129 7.79093 2.8115e-20)
(54.3415 7.806 -3.33377e-20)
(54.2477 7.82424 1.1366e-21)
(54.1474 7.85414 3.63584e-20)
(54.0446 7.84117 7.12652e-21)
(53.9248 7.99083 -7.82787e-21)
(53.8322 8.02333 7.08974e-20)
(53.794 7.91152 -1.59374e-19)
(53.7688 7.65065 8.076e-20)
(51.309 9.04371 5.78055e-25)
(51.308 9.04861 1.03817e-20)
(51.3094 9.04669 -9.6989e-21)
(51.3098 9.04737 -1.60797e-20)
(51.3104 9.0467 -3.00748e-20)
(51.3111 9.04593 -2.83637e-24)
(51.3121 9.04483 -4.92324e-20)
(51.3134 9.04315 -4.54056e-24)
(51.315 9.04074 3.02816e-24)
(51.3165 9.03771 -3.65275e-24)
(51.3184 9.03368 -5.80955e-22)
(51.3205 9.02789 -1.6062e-25)
(51.3218 9.01946 0)
(51.3244 9.0067 1.17456e-19)
(51.3258 8.98822 -8.59168e-20)
(51.3316 8.96127 1.24459e-19)
(51.3385 8.92473 -8.44485e-20)
(51.3564 8.87434 -1.12188e-19)
(51.3838 8.80753 -7.1471e-23)
(51.4236 8.71813 -5.25035e-24)
(51.4853 8.59939 -1.14027e-23)
(51.5838 8.43756 -6.58411e-20)
(51.6546 8.23523 -1.36104e-22)
(51.8495 7.96513 -9.21175e-20)
(51.9976 7.60963 0)
(52.3345 7.22488 4.96147e-22)
(52.6149 6.91976 -6.18089e-22)
(52.9438 6.73781 7.45618e-20)
(53.2531 6.68251 -1.58489e-21)
(53.5184 6.72931 -7.40296e-22)
(53.7464 6.84667 -1.10671e-19)
(53.9386 7.00508 7.93466e-20)
(54.0978 7.1718 -5.9657e-21)
(54.2286 7.32734 7.12896e-20)
(54.3308 7.45967 -4.97575e-20)
(54.4037 7.56406 0)
(54.4446 7.64204 0)
(54.4529 7.6982 -1.96594e-20)
(54.4317 7.74047 2.38531e-20)
(54.3822 7.77705 9.30232e-22)
(54.3133 7.81286 8.67315e-20)
(54.2256 7.851 -4.20549e-20)
(54.1358 7.89863 1.21731e-20)
(54.0442 7.90184 -7.13493e-21)
(53.9403 8.06193 -6.6347e-20)
(53.8589 8.10077 7.56717e-20)
(53.8321 8.00425 0)
(53.8232 7.75766 8.46792e-20)
(51.309 9.04355 -8.17486e-22)
(51.3081 9.04855 9.96761e-21)
(51.3094 9.0466 4.71318e-21)
(51.3098 9.04728 -3.18196e-20)
(51.3104 9.0466 3.08037e-24)
(51.3111 9.04579 5.44021e-20)
(51.3121 9.04466 0)
(51.3134 9.04292 -8.65005e-20)
(51.315 9.04042 -7.95733e-20)
(51.3165 9.03727 -6.97792e-20)
(51.3184 9.03307 2.32709e-19)
(51.3204 9.02701 1.29233e-24)
(51.3217 9.0182 0)
(51.3241 9.00487 -2.35816e-19)
(51.3253 8.98553 -1.74181e-19)
(51.3309 8.95736 -1.2609e-19)
(51.3375 8.91909 3.92693e-23)
(51.355 8.86629 1.12228e-19)
(51.382 8.79638 0)
(51.4211 8.70285 -8.79036e-23)
(51.4827 8.57853 9.89885e-23)
(51.5784 8.41049 6.5983e-20)
(51.6511 8.19906 1.36842e-22)
(51.8391 7.91789 -1.95565e-22)
(51.99 7.54587 5.44095e-20)
(52.3167 7.1419 1.06141e-19)
(52.5999 6.81978 -8.87655e-20)
(52.9246 6.62382 -2.92267e-19)
(53.2361 6.56116 -3.77441e-21)
(53.5044 6.60579 7.91341e-20)
(53.7356 6.72515 1.1735e-19)
(53.9307 6.88879 7.22323e-22)
(54.0916 7.0626 -9.91163e-20)
(54.2218 7.22659 -6.33625e-20)
(54.3222 7.36879 2.03089e-20)
(54.3918 7.48489 -1.01918e-19)
(54.4287 7.5768 -3.15805e-20)
(54.4334 7.64944 3.87569e-20)
(54.4106 7.71034 -2.37677e-20)
(54.3625 7.76634 -4.27798e-20)
(54.2991 7.82087 1.24183e-19)
(54.2193 7.8761 -8.62793e-20)
(54.1413 7.93812 1.01333e-19)
(54.0597 7.95383 -2.48888e-19)
(53.9714 8.12147 1.40572e-19)
(53.8975 8.16359 0)
(53.8826 8.0795 1.81606e-19)
(53.8854 7.84239 -1.85136e-19)
(51.309 9.04339 8.17789e-22)
(51.3081 9.04849 -3.03363e-20)
(51.3094 9.0465 4.16792e-21)
(51.3098 9.04719 6.348e-20)
(51.3104 9.04649 0)
(51.3111 9.04566 -5.44235e-20)
(51.3121 9.04449 0)
(51.3134 9.04268 8.65344e-20)
(51.315 9.0401 7.95984e-20)
(51.3164 9.03682 6.98138e-20)
(51.3183 9.03243 -2.33995e-19)
(51.3203 9.02612 -9.70653e-20)
(51.3215 9.0169 1.53567e-19)
(51.3239 9.00299 1.18343e-19)
(51.3249 8.98278 1.74222e-19)
(51.3303 8.95334 1.26132e-19)
(51.3365 8.9133 0)
(51.3537 8.85804 0)
(51.3803 8.78497 7.23865e-23)
(51.4188 8.68724 8.75674e-20)
(51.4804 8.55728 -1.06007e-19)
(51.5731 8.38301 0)
(51.648 8.1625 0)
(51.8289 7.87037 0)
(51.9827 7.4819 -1.0818e-19)
(52.2988 7.05859 -2.1522e-19)
(52.5847 6.71923 9.00456e-20)
(52.9053 6.50883 1.4668e-19)
(53.219 6.43835 0)
(53.4908 6.48057 0)
(53.7257 6.60186 7.33096e-21)
(53.924 6.77089 -8.44959e-20)
(54.0869 6.95229 9.91508e-20)
(54.2172 7.12544 -1.62482e-20)
(54.3164 7.27849 6.14392e-20)
(54.3837 7.40735 5.11812e-20)
(54.4182 7.51416 -3.77487e-22)
(54.4211 7.60377 3.93473e-20)
(54.3993 7.68278 0)
(54.3551 7.75666 -1.18611e-19)
(54.2991 7.82747 9.14391e-20)
(54.2283 7.89705 0)
(54.1614 7.97025 0)
(54.0892 7.99587 7.67398e-21)
(54.0134 8.16883 0)
(53.9459 8.21285 1.04248e-20)
(53.9397 8.13897 -1.09336e-20)
(53.9501 7.90778 5.72047e-21)
(51.3089 9.04322 -1.06949e-21)
(51.3081 9.04842 2.04718e-22)
(51.3093 9.0464 3.61879e-21)
(51.3098 9.0471 -6.31569e-20)
(51.3103 9.04638 2.95899e-20)
(51.3111 9.04552 5.64352e-24)
(51.3121 9.0443 0)
(51.3133 9.04243 -6.87179e-24)
(51.315 9.03976 8.29268e-24)
(51.3164 9.03635 0)
(51.3182 9.03178 -6.17172e-22)
(51.3202 9.02519 9.71046e-20)
(51.3214 9.01557 -1.53628e-19)
(51.3237 9.00106 2.40076e-19)
(51.3246 8.97995 0)
(51.3297 8.94923 0)
(51.3357 8.90738 0)
(51.3524 8.8496 0)
(51.3787 8.77332 -7.2939e-23)
(51.4167 8.67134 -8.75945e-20)
(51.4784 8.5357 2.13203e-19)
(51.5679 8.3552 1.30028e-22)
(51.6454 8.12568 -1.38807e-22)
(51.8188 7.82274 9.17844e-20)
(51.976 7.41798 5.45287e-20)
(52.2808 6.97528 2.14925e-19)
(52.5692 6.61848 -1.66442e-21)
(52.8859 6.39327 2.07421e-21)
(53.2018 6.31448 -1.13379e-19)
(53.4774 6.35404 0)
(53.7164 6.47716 0)
(53.9185 6.65173 8.65668e-20)
(54.0841 6.84116 -1.22892e-20)
(54.215 7.02416 1.64099e-20)
(54.3138 7.18888 -1.44724e-19)
(54.3802 7.33136 5.2273e-20)
(54.4138 7.45363 3.22316e-20)
(54.4173 7.56009 -3.99077e-20)
(54.3988 7.65615 1.23831e-19)
(54.3604 7.74597 5.99263e-20)
(54.3129 7.83058 -1.92891e-20)
(54.2512 7.91191 -2.0315e-19)
(54.194 7.99362 1.09157e-19)
(54.1303 8.02729 -1.44819e-19)
(54.0637 8.2041 1.50928e-19)
(54.002 8.24937 1.48542e-19)
(53.9998 8.18373 -1.86516e-19)
(54.0154 7.95666 0)
(51.3089 9.04305 2.27235e-21)
(51.3081 9.04836 1.93495e-20)
(51.3093 9.04629 -7.7851e-21)
(51.3098 9.04701 1.76119e-22)
(51.3103 9.04626 -2.96019e-20)
(51.3111 9.04537 -5.63435e-24)
(51.312 9.04412 0)
(51.3133 9.04218 -8.7422e-20)
(51.3149 9.03941 -1.23144e-23)
(51.3164 9.03587 1.48543e-23)
(51.3182 9.03111 1.18016e-19)
(51.3201 9.02425 -7.00436e-24)
(51.3213 9.01421 1.55698e-19)
(51.3235 8.99909 1.7737e-21)
(51.3243 8.97707 -1.78212e-19)
(51.3292 8.94504 -3.38174e-23)
(51.3349 8.90135 4.01112e-23)
(51.3514 8.84101 0)
(51.3773 8.76147 -7.3575e-23)
(51.4148 8.65519 -5.90383e-24)
(51.4768 8.51385 -1.07093e-19)
(51.5631 8.32717 0)
(51.6434 8.08873 7.19085e-20)
(51.8092 7.7752 -1.833e-19)
(51.9698 7.35441 -3.94408e-22)
(52.263 6.89237 -1.07591e-19)
(52.5537 6.51799 9.19443e-20)
(52.8667 6.27762 -2.62232e-21)
(53.1848 6.19005 6.30506e-21)
(53.4647 6.22668 -4.82915e-21)
(53.7084 6.35152 -7.46347e-21)
(53.9149 6.53175 -1.44802e-19)
(54.0838 6.7296 1.01877e-19)
(54.2163 6.92306 1.6559e-20)
(54.3156 7.10012 6.23635e-20)
(54.3825 7.25675 -1.05071e-19)
(54.4172 7.3946 -3.29914e-20)
(54.4231 7.51732 0)
(54.4098 7.62889 4.08048e-22)
(54.3785 7.73249 -3.06554e-20)
(54.3397 7.82861 0)
(54.2862 7.91927 2.28272e-20)
(54.2376 8.00753 -1.41462e-20)
(54.1802 8.04772 1.63844e-20)
(54.121 8.22756 0)
(54.0632 8.2734 1.08207e-20)
(54.0624 8.21485 0)
(54.0827 7.99179 0)
(51.3089 9.04287 -1.20188e-21)
(51.3081 9.04829 -1.89579e-20)
(51.3093 9.04619 6.69302e-21)
(51.3097 9.04691 -3.09868e-20)
(51.3103 9.04614 0)
(51.3111 9.04522 0)
(51.312 9.04392 -9.87947e-20)
(51.3133 9.04191 8.74575e-20)
(51.3149 9.03905 0)
(51.3163 9.03538 1.05548e-23)
(51.3181 9.03041 -1.27236e-23)
(51.3201 9.02327 1.97865e-19)
(51.3212 9.01282 -1.55761e-19)
(51.3234 8.99707 -2.42017e-19)
(51.324 8.97413 -1.46171e-21)
(51.3288 8.94077 0)
(51.3343 8.89521 0)
(51.3505 8.83229 -5.94392e-23)
(51.3762 8.74947 6.92125e-23)
(51.4133 8.63885 1.80589e-19)
(51.4756 8.49182 -1.02957e-22)
(51.5586 8.29899 0)
(51.642 8.0518 -1.44584e-19)
(51.8 7.72795 9.15839e-20)
(51.9642 7.29148 0)
(52.2455 6.81023 0)
(52.5381 6.41816 -9.36764e-20)
(52.8476 6.16237 1.52782e-19)
(53.1679 6.06554 1.14316e-19)
(53.4526 6.09894 0)
(53.7017 6.22534 0)
(53.9133 6.41128 -6.28692e-22)
(54.0862 6.6179 -1.27923e-19)
(54.2213 6.82229 3.25662e-20)
(54.3224 7.01216 -8.45954e-20)
(54.3913 7.18316 -5.45071e-22)
(54.4289 7.33632 9.92077e-20)
(54.4392 7.47426 -4.11404e-20)
(54.4326 7.59955 7.64747e-20)
(54.4089 7.71483 -2.84155e-19)
(54.3786 7.82034 1.55641e-19)
(54.332 7.91843 0)
(54.2906 8.01172 1.41455e-20)
(54.2372 8.05751 0)
(54.1844 8.24001 -3.39775e-19)
(54.1284 8.28592 3.64652e-19)
(54.1313 8.23438 0)
(54.1548 8.0151 0)
(51.3088 9.04269 0)
(51.3082 9.04821 9.38234e-21)
(51.3093 9.04608 -5.47699e-22)
(51.3097 9.04681 6.23566e-20)
(51.3103 9.04602 5.84838e-20)
(51.3111 9.04507 -5.42888e-20)
(51.312 9.04372 9.88356e-20)
(51.3133 9.04165 1.39036e-23)
(51.3149 9.03868 -1.6235e-19)
(51.3163 9.03488 1.4271e-19)
(51.3181 9.02971 -4.90254e-24)
(51.32 9.02228 -1.9792e-19)
(51.3211 9.0114 -1.11947e-23)
(51.3233 8.99503 -2.45941e-19)
(51.3239 8.97115 1.79784e-19)
(51.3286 8.93645 2.62398e-19)
(51.3339 8.88901 -2.04059e-23)
(51.35 8.82347 0)
(51.3754 8.73734 0)
(51.4123 8.62236 -1.80636e-19)
(51.475 8.46966 1.0437e-22)
(51.5547 8.27076 2.68868e-22)
(51.6414 8.01503 7.27035e-20)
(51.7916 7.68119 9.24722e-20)
(51.9594 7.22949 -5.71406e-22)
(52.2286 6.72926 7.12402e-22)
(52.5226 6.31949 9.33026e-20)
(52.829 6.04804 -1.45436e-19)
(53.1515 5.94147 -6.63306e-21)
(53.4416 5.97132 -7.2776e-20)
(53.6968 6.09908 -1.30456e-19)
(53.9143 6.29074 9.81703e-20)
(54.0922 6.50633 -2.51895e-20)
(54.231 6.72199 -3.36987e-20)
(54.3353 6.9249 1.26684e-19)
(54.4079 7.11017 1.06997e-19)
(54.4502 7.27802 -6.75418e-20)
(54.4664 7.4298 -1.67422e-19)
(54.467 7.5669 0)
(54.4512 7.69194 3.18306e-20)
(54.4285 7.80494 -1.78015e-19)
(54.3877 7.90907 1.69896e-19)
(54.3513 8.00628 2.49723e-19)
(54.3015 8.0573 -2.81899e-19)
(54.2522 8.24216 2.0286e-20)
(54.1985 8.28831 0)
(54.2035 8.24273 -1.30293e-20)
(54.2293 8.02647 -4.45883e-19)
(51.3088 9.0425 0)
(51.3082 9.04814 0)
(51.3093 9.04596 -6.14585e-21)
(51.3097 9.0467 -3.08425e-20)
(51.3103 9.04589 -5.85054e-20)
(51.3111 9.04491 4.24105e-23)
(51.312 9.04352 0)
(51.3133 9.04137 0)
(51.3149 9.0383 1.62387e-19)
(51.3163 9.03436 6.2865e-22)
(51.3181 9.02899 2.41647e-19)
(51.32 9.02127 2.14541e-23)
(51.3211 9.00995 1.59338e-19)
(51.3233 8.99296 -2.1319e-21)
(51.3239 8.96813 0)
(51.3284 8.93209 2.5653e-21)
(51.3338 8.88274 -1.81952e-23)
(51.3497 8.81457 2.74782e-23)
(51.375 8.72513 7.61705e-23)
(51.4118 8.60579 -1.81567e-22)
(51.475 8.44747 1.06011e-22)
(51.5515 8.24258 -1.40176e-19)
(51.6416 7.97855 7.58401e-20)
(51.784 7.63511 9.33092e-22)
(51.9553 7.16876 5.66946e-20)
(52.2124 6.64985 1.08789e-19)
(52.5071 6.22243 4.08079e-21)
(52.8109 5.93515 7.21317e-20)
(53.1356 5.81838 0)
(53.4316 5.84431 1.68452e-19)
(53.6936 5.97317 1.01316e-19)
(53.918 6.17042 1.90769e-20)
(54.102 6.39506 -1.04325e-19)
(54.2459 6.62218 3.39885e-20)
(54.3549 6.83814 4.36416e-20)
(54.4328 7.03728 1.08695e-19)
(54.4814 7.21883 6.76365e-20)
(54.5045 7.38289 -4.27235e-20)
(54.513 7.53001 -1.05409e-19)
(54.5045 7.66305 2.61798e-19)
(54.4885 7.78205 -1.41868e-19)
(54.4523 7.89113 -1.73534e-19)
(54.4195 7.9915 1.95879e-19)
(54.3719 8.04748 2.88064e-19)
(54.3244 8.23442 -3.59916e-19)
(54.2728 8.28056 -1.21846e-20)
(54.2783 8.23949 1.30239e-20)
(54.3065 8.02524 4.58418e-19)
(51.3088 9.04231 -1.77543e-21)
(51.3082 9.04806 -2.66866e-24)
(51.3093 9.04584 1.88178e-24)
(51.3097 9.0466 9.2203e-20)
(51.3103 9.04577 -5.80099e-20)
(51.3111 9.04475 5.42727e-20)
(51.312 9.04331 -5.06559e-24)
(51.3133 9.04108 4.52076e-24)
(51.3149 9.03792 1.69153e-23)
(51.3162 9.03383 6.5436e-22)
(51.3181 9.02825 -4.85007e-19)
(51.32 9.02025 -2.89923e-23)
(51.3212 9.00849 -4.80773e-19)
(51.3234 8.99087 -2.31742e-21)
(51.324 8.96508 -4.54852e-24)
(51.3285 8.9277 -5.33049e-19)
(51.3339 8.87644 1.82179e-19)
(51.3498 8.80564 0)
(51.3751 8.71288 3.86674e-23)
(51.4119 8.58918 -4.43772e-23)
(51.4757 8.42532 1.16193e-19)
(51.5492 8.21455 -2.10797e-21)
(51.6427 7.94252 -7.57128e-20)
(51.7775 7.58992 -9.30666e-20)
(51.9521 7.10958 -1.15014e-19)
(52.197 6.57244 -1.61421e-19)
(52.4919 6.12747 -1.91401e-19)
(52.7933 5.82426 -1.53395e-19)
(53.1204 5.69681 -7.98923e-21)
(53.4229 5.71841 -7.46096e-20)
(53.6927 5.84805 1.54067e-20)
(53.925 6.05067 -3.97076e-20)
(54.1164 6.28433 1.03174e-19)
(54.2669 6.52288 3.33538e-20)
(54.3821 6.75164 -8.60787e-20)
(54.467 6.96395 5.91501e-22)
(54.5231 7.15801 0)
(54.5539 7.33278 4.33085e-20)
(54.5701 7.48819 0)
(54.5684 7.62775 1.33169e-19)
(54.558 7.75157 -2.08113e-22)
(54.5251 7.86472 -3.79417e-19)
(54.4943 7.96765 2.45773e-19)
(54.448 8.02837 2.94974e-19)
(54.401 8.21706 2.08019e-20)
(54.3507 8.26263 -3.82866e-19)
(54.3566 8.22457 0)
(54.3862 8.01099 -4.56541e-19)
(51.3087 9.04212 3.71001e-21)
(51.3082 9.04798 0)
(51.3093 9.04572 4.51519e-21)
(51.3097 9.04649 -9.18931e-20)
(51.3103 9.04563 5.80353e-20)
(51.311 9.04458 -5.42173e-20)
(51.3119 9.04309 -1.02966e-23)
(51.3133 9.04079 8.90918e-20)
(51.3148 9.03752 -8.20642e-24)
(51.3162 9.03329 -1.44109e-19)
(51.3181 9.0275 2.43316e-19)
(51.3201 9.0192 0)
(51.3213 9.00701 3.21479e-19)
(51.3235 8.98875 2.507e-19)
(51.3243 8.96202 -3.7453e-19)
(51.3288 8.92329 5.39245e-19)
(51.3343 8.87013 2.47441e-21)
(51.3503 8.79668 3.90945e-24)
(51.3757 8.70062 -2.42237e-23)
(51.4127 8.57258 -1.92598e-19)
(51.4773 8.40328 -2.35029e-19)
(51.5478 8.18674 1.42063e-19)
(51.6447 7.90706 -7.91914e-20)
(51.7722 7.54578 9.52659e-20)
(51.9499 7.05225 5.75069e-20)
(52.1827 6.4974 -2.682e-22)
(52.4768 6.03506 9.48115e-20)
(52.7764 5.7159 7.15622e-20)
(53.1059 5.57731 6.77949e-21)
(53.4157 5.5941 1.1374e-20)
(53.6942 5.72412 -1.41753e-20)
(53.9356 5.93176 0)
(54.1357 6.17423 1.32868e-19)
(54.2942 6.42398 -1.02213e-19)
(54.4172 6.66504 0)
(54.5106 6.88963 -5.49574e-20)
(54.5754 7.09489 6.97195e-20)
(54.6142 7.2788 -8.64114e-20)
(54.6378 7.44104 0)
(54.6424 7.58591 1.35572e-19)
(54.6362 7.71357 -2.10221e-19)
(54.6057 7.83007 5.21189e-22)
(54.5754 7.93501 3.10853e-20)
(54.5298 8.00033 0)
(54.4814 8.19024 3.54051e-19)
(54.4326 8.23489 -4.04142e-19)
(54.4363 8.19818 4.44441e-19)
(54.466 7.98446 -4.67125e-19)
(51.3087 9.04192 -1.934e-21)
(51.3083 9.04789 0)
(51.3093 9.0456 -8.48958e-21)
(51.3097 9.04637 9.12332e-20)
(51.3102 9.0455 0)
(51.311 9.04441 3.62062e-23)
(51.3119 9.04287 9.92425e-20)
(51.3133 9.04049 -1.78645e-19)
(51.3148 9.03711 8.80317e-24)
(51.3162 9.03274 1.45605e-19)
(51.3181 9.02673 5.24063e-23)
(51.3201 9.01815 5.89857e-23)
(51.3215 9.00552 -7.09441e-23)
(51.3238 8.98664 0)
(51.3248 8.95895 3.74738e-19)
(51.3293 8.91889 -2.71385e-19)
(51.3352 8.86382 -1.847e-19)
(51.3513 8.78775 -5.72725e-23)
(51.377 8.6884 -1.59805e-19)
(51.4145 8.55605 3.89503e-19)
(51.4798 8.38142 1.18825e-19)
(51.5475 8.15926 6.81621e-23)
(51.6479 7.8723 7.90226e-20)
(51.7683 7.50289 -9.45398e-20)
(51.9485 6.99704 -1.1784e-21)
(52.1696 6.42515 1.14464e-21)
(52.4621 5.9457 0)
(52.7603 5.61062 0)
(53.0924 5.46042 1.11389e-19)
(53.4101 5.47189 8.51243e-20)
(53.6983 5.60178 -1.36342e-21)
(53.9502 5.814 -1.30095e-21)
(54.1604 6.06488 2.68287e-20)
(54.3286 6.32537 -6.12505e-22)
(54.461 6.57802 0)
(54.5641 6.81382 5.61385e-20)
(54.6384 7.02887 -2.11626e-19)
(54.6852 7.22049 4.43088e-20)
(54.7159 7.38841 0)
(54.7256 7.53759 -1.37916e-19)
(54.7225 7.66839 -9.75127e-22)
(54.6932 7.78769 1.84299e-19)
(54.6623 7.89419 -3.23523e-20)
(54.6164 7.96389 1.94275e-20)
(54.5654 8.15459 -2.28209e-20)
(54.5182 8.19798 2.60497e-20)
(54.5167 8.16149 0)
(54.5458 7.94784 1.50814e-20)
(51.3087 9.04171 -8.28384e-25)
(51.3083 9.0478 2.31446e-24)
(51.3092 9.04547 3.9726e-21)
(51.3097 9.04626 -6.07331e-20)
(51.3102 9.04535 0)
(51.311 9.04424 1.62645e-19)
(51.3119 9.04264 -9.93011e-20)
(51.3132 9.04018 -3.50842e-22)
(51.3148 9.03669 5.97243e-23)
(51.3162 9.03217 -1.45706e-19)
(51.3182 9.02596 -3.66957e-23)
(51.3203 9.01708 -2.07055e-19)
(51.3217 9.00402 -3.30819e-19)
(51.3242 8.98451 2.58869e-19)
(51.3255 8.95589 -3.8449e-19)
(51.3302 8.91449 -2.79221e-19)
(51.3365 8.85753 -1.21522e-23)
(51.3529 8.77885 1.16543e-22)