/*--------------------------------*- C++ -*----------------------------------*\
  =========                 |
  \\      /  F ield         | OpenFOAM: The Open Source CFD Toolbox
   \\    /   O peration     | Website:  https://openfoam.org
    \\  /    A nd           | Version:  10
     \\/     M anipulation  |
\*---------------------------------------------------------------------------*/
FoamFile
{
    format      ascii;
    class       volScalarField;
    location    "10";
    object      k;
}
// * * * * * * * * * * * * * * * * * * * * * * * * * * * * * * * * * * * * * //

dimensions      [0 2 -2 0 0 0 0];

internalField   nonuniform List<scalar> 
38016
(
0.0952513
0.0957587
0.0967384
0.0970732
0.0975331
0.097929
0.0982372
0.0986105
0.0987697
0.0990299
0.0991311
0.099215
0.099354
0.0994716
0.0995224
0.099582
0.0996426
0.0996907
0.0997615
0.0998216
0.0999147
0.100056
0.100299
0.100776
0.100986
0.101118
0.101045
0.100956
0.100808
0.100854
0.100773
0.100791
0.100651
0.100684
0.100748
0.100751
0.100644
0.100629
0.100723
0.100739
0.100732
0.100743
0.10075
0.100616
0.100695
0.100671
0.100618
0.100818
0.0953032
0.0957695
0.096543
0.0970729
0.0975235
0.0979339
0.0982466
0.0986194
0.098766
0.0990899
0.0991292
0.0992137
0.0993849
0.0994688
0.0995212
0.0995827
0.0996403
0.0996897
0.0997704
0.0998225
0.0999155
0.100048
0.100286
0.100734
0.101005
0.101097
0.101089
0.100949
0.100827
0.100905
0.100789
0.100794
0.100825
0.100746
0.100863
0.100906
0.10074
0.100841
0.10091
0.100975
0.100959
0.100945
0.100861
0.100765
0.100875
0.100953
0.100843
0.100959
0.0952579
0.0957467
0.0965468
0.0972087
0.0975067
0.0980351
0.0982212
0.0985981
0.0987608
0.0990414
0.099119
0.0992116
0.0993484
0.0994541
0.0995198
0.0995928
0.0996378
0.0996881
0.0997579
0.0998222
0.0999166
0.100051
0.10026
0.1008
0.101041
0.101249
0.101115
0.101106
0.100944
0.100946
0.100843
0.100878
0.100928
0.100918
0.100908
0.100951
0.100773
0.100931
0.101022
0.101097
0.101068
0.101149
0.101105
0.100895
0.101069
0.101102
0.101009
0.101003
0.0952552
0.0956754
0.0965132
0.097039
0.0975017
0.0979312
0.0982232
0.0985932
0.0987401
0.0990786
0.0991356
0.0992139
0.0993364
0.0994465
0.0995451
0.0995745
0.0996362
0.0996833
0.0997575
0.099824
0.0999222
0.100064
0.100306
0.100868
0.101068
0.10127
0.10127
0.101134
0.100984
0.100953
0.100993
0.100957
0.100983
0.100978
0.100933
0.100959
0.100833
0.100969
0.101058
0.101142
0.101094
0.101213
0.101281
0.101085
0.101153
0.101309
0.101207
0.1012
0.0952014
0.0958577
0.0964245
0.097186
0.0974999
0.0979426
0.0982124
0.0985754
0.0987473
0.0989965
0.0990874
0.0992019
0.099338
0.0994527
0.0995187
0.099576
0.0996302
0.0996851
0.099755
0.0998286
0.099926
0.100064
0.100305
0.100875
0.101093
0.101364
0.101317
0.101108
0.100984
0.101136
0.101074
0.101042
0.101116
0.100991
0.100992
0.10097
0.100946
0.101116
0.101115
0.101146
0.101326
0.101247
0.101332
0.101167
0.101379
0.101438
0.101386
0.101344
0.0951876
0.095691
0.0964169
0.0970025
0.0973849
0.097919
0.0982296
0.09858
0.0987412
0.0989482
0.0990867
0.099201
0.0993418
0.0994009
0.0994921
0.0995518
0.0996291
0.0996956
0.0997489
0.0998213
0.0999296
0.10006
0.100273
0.100894
0.101082
0.101461
0.101351
0.101274
0.101152
0.101276
0.101182
0.101071
0.101173
0.101009
0.100961
0.10091
0.101058
0.101201
0.101174
0.101336
0.10145
0.101389
0.101365
0.101381
0.101547
0.101517
0.101518
0.101576
0.0951041
0.0957363
0.0965775
0.0969784
0.0973648
0.0979838
0.0982956
0.098592
0.0987565
0.098942
0.0990773
0.0992196
0.0993154
0.0993953
0.0994835
0.099539
0.0996283
0.0996806
0.0997472
0.0998202
0.0999352
0.100061
0.100311
0.100818
0.10122
0.101566
0.10134
0.101412
0.101266
0.101305
0.101227
0.101052
0.101181
0.101006
0.100917
0.100885
0.101111
0.101294
0.101201
0.10141
0.101555
0.101531
0.101559
0.10162
0.101748
0.101693
0.101619
0.101805
0.0952925
0.0957855
0.0963598
0.0969897
0.0973474
0.0978582
0.0981724
0.0985023
0.0988074
0.0989323
0.0990845
0.0991556
0.0993481
0.0993867
0.0994763
0.0995348
0.0996367
0.0996641
0.0997536
0.0998208
0.0999394
0.100073
0.100331
0.100883
0.101243
0.101528
0.101513
0.101435
0.101306
0.101299
0.101235
0.101131
0.101195
0.101005
0.100875
0.100819
0.101091
0.101296
0.101243
0.101607
0.101717
0.101637
0.101607
0.101698
0.10183
0.101667
0.101842
0.101873
0.0950373
0.0956882
0.0962533
0.0970041
0.097313
0.0979651
0.0981695
0.0984451
0.0987285
0.0989888
0.0990737
0.0991524
0.0993115
0.0994155
0.0994614
0.099527
0.0996105
0.0996417
0.0997394
0.0998153
0.0999409
0.100081
0.100361
0.10081
0.101457
0.101763
0.101536
0.101383
0.101409
0.101414
0.101371
0.10111
0.101169
0.100975
0.100829
0.100784
0.101094
0.101211
0.101371
0.101778
0.101793
0.1019
0.10187
0.10189
0.101848
0.101906
0.102054
0.101956
0.0950653
0.0959485
0.0962204
0.0968822
0.0972956
0.0978173
0.0981384
0.0984553
0.0987305
0.0989228
0.0990733
0.099159
0.099335
0.0993871
0.0994564
0.0995315
0.0996155
0.0996496
0.0997259
0.099815
0.0999383
0.100092
0.100397
0.100908
0.101554
0.101869
0.101698
0.10156
0.101434
0.101437
0.101384
0.101113
0.101142
0.100956
0.100775
0.100741
0.101087
0.101265
0.101499
0.101716
0.101801
0.101929
0.102073
0.102161
0.102098
0.102169
0.102055
0.101975
0.0952475
0.0958245
0.0962091
0.096881
0.0972198
0.0977685
0.0981446
0.0983761
0.0987497
0.0989503
0.0990991
0.0991326
0.0992902
0.0994062
0.0994506
0.0994907
0.099599
0.0996273
0.0997158
0.099816
0.0999384
0.100101
0.100441
0.101002
0.101679
0.101904
0.101743
0.10168
0.10143
0.101438
0.101387
0.101036
0.101103
0.100989
0.100718
0.100705
0.101082
0.101253
0.101619
0.101893
0.102013
0.102159
0.102298
0.102178
0.102316
0.102338
0.102223
0.101879
0.0949646
0.0957035
0.096237
0.0968252
0.0971927
0.0977192
0.0982136
0.0984637
0.0987067
0.0988267
0.0990181
0.0991274
0.0992468
0.0993587
0.0994359
0.0994833
0.0995969
0.099623
0.0996901
0.0998121
0.0999345
0.100111
0.100504
0.10111
0.101674
0.102001
0.101744
0.101745
0.101534
0.10148
0.101445
0.101067
0.101092
0.100966
0.100664
0.100674
0.100962
0.101223
0.101655
0.101834
0.101988
0.102194
0.1024
0.102407
0.102559
0.102373
0.10227
0.101989
0.0952351
0.0956451
0.0960392
0.0968164
0.0971279
0.0976934
0.098062
0.0984058
0.0986222
0.0987367
0.0989522
0.0991037
0.0992617
0.0993151
0.0994301
0.0994792
0.0995821
0.0996142
0.0996862
0.0998088
0.0999285
0.100122
0.10054
0.101109
0.101967
0.102065
0.101851
0.10188
0.101649
0.101501
0.101459
0.101073
0.101079
0.100983
0.100617
0.100646
0.101014
0.101286
0.101722
0.101946
0.102149
0.10239
0.102411
0.102609
0.10276
0.102336
0.102253
0.102106
0.094953
0.0956527
0.0959699
0.096734
0.0971216
0.0976376
0.0979584
0.09848
0.0985149
0.098725
0.0989846
0.0990944
0.0992365
0.0993156
0.0994213
0.099471
0.0995732
0.0996097
0.0996892
0.0998058
0.0999249
0.10013
0.100526
0.10121
0.102111
0.102214
0.102025
0.101916
0.101714
0.10156
0.101488
0.101052
0.101074
0.100939
0.100601
0.100673
0.100985
0.101371
0.101736
0.102082
0.102155
0.102421
0.102674
0.102999
0.103057
0.102592
0.102481
0.10225
0.0950928
0.0958728
0.0957266
0.0967013
0.0970958
0.0976247
0.0979833
0.0983416
0.0984993
0.0987369
0.0989287
0.0990685
0.0992097
0.0993085
0.0994125
0.0994803
0.0995581
0.099604
0.0996633
0.0998014
0.0999214
0.100136
0.10049
0.101192
0.102001
0.102418
0.102284
0.101976
0.101719
0.101552
0.101472
0.101035
0.101041
0.100923
0.100594
0.100631
0.101072
0.101346
0.101609
0.102094
0.102008
0.102453
0.102568
0.103088
0.103377
0.10291
0.102743
0.102448
0.0946196
0.0955094
0.0956954
0.0967784
0.0971134
0.0975595
0.0978856
0.0982003
0.0984916
0.0987114
0.0988609
0.0991067
0.0991969
0.0993293
0.0993893
0.0994418
0.0995461
0.0996109
0.0996524
0.0997929
0.0999164
0.100137
0.100526
0.101166
0.102107
0.102475
0.102402
0.101921
0.101807
0.101564
0.101483
0.101007
0.101038
0.100899
0.10059
0.100684
0.100944
0.101361
0.101791
0.102111
0.102161
0.102468
0.102702
0.103223
0.103588
0.103158
0.102668
0.102706
0.0943552
0.0951697
0.0956391
0.0965087
0.0971715
0.097535
0.0979321
0.0981782
0.0985507
0.0986829
0.098846
0.0990393
0.0991688
0.099271
0.0993748
0.0994383
0.0995242
0.0995758
0.0996441
0.0997829
0.0999117
0.100117
0.100508
0.10114
0.10194
0.102439
0.102352
0.102025
0.101811
0.101556
0.101468
0.100972
0.101046
0.100903
0.100603
0.10074
0.101115
0.101314
0.10197
0.102232
0.102278
0.102476
0.102843
0.103381
0.103826
0.103248
0.102943
0.102477
0.0945378
0.094839
0.0955909
0.096331
0.0971506
0.0974728
0.0978156
0.0981338
0.0984567
0.0986103
0.098862
0.0990543
0.0991723
0.0992294
0.0993651
0.0994579
0.0995078
0.0995527
0.0996423
0.0997675
0.0999045
0.100096
0.1005
0.101031
0.101947
0.1026
0.102574
0.102037
0.101823
0.101611
0.101455
0.100969
0.101054
0.100918
0.100632
0.100816
0.101278
0.101267
0.101998
0.102228
0.102333
0.102488
0.103116
0.103531
0.103695
0.103295
0.102972
0.102681
0.0942435
0.0948662
0.0955201
0.0963342
0.0970627
0.097465
0.097815
0.0981327
0.0984929
0.0986558
0.0987773
0.0989679
0.0991522
0.0992396
0.0993302
0.09942
0.0994809
0.0995444
0.0996122
0.099754
0.0998965
0.100077
0.100468
0.101023
0.101885
0.102581
0.102578
0.102071
0.101832
0.101654
0.101432
0.100971
0.101058
0.100933
0.100689
0.100909
0.101256
0.101231
0.102041
0.102204
0.102344
0.102503
0.103157
0.103796
0.104195
0.103222
0.103035
0.102499
0.0942498
0.0948565
0.0955068
0.0961848
0.0969793
0.097435
0.097779
0.0981039
0.0983869
0.0985685
0.0987752
0.0989602
0.0991331
0.099205
0.0992815
0.0993895
0.0994571
0.0995382
0.0996093
0.0997342
0.0998868
0.100064
0.100454
0.101
0.101802
0.102589
0.102613
0.10205
0.101818
0.101631
0.10141
0.101024
0.101126
0.100984
0.100804
0.101066
0.101138
0.101342
0.101997
0.10224
0.10242
0.102456
0.103296
0.104224
0.104389
0.103621
0.103156
0.102816
0.0943595
0.0945449
0.0957039
0.0961284
0.0968144
0.0974546
0.0977713
0.0981592
0.0982752
0.0985612
0.0987001
0.0989815
0.0991061
0.0991666
0.0992909
0.0993411
0.0994442
0.0995368
0.0996082
0.0997098
0.0998768
0.10005
0.100408
0.100943
0.101736
0.102536
0.102599
0.102018
0.101889
0.101673
0.101457
0.101053
0.101182
0.101063
0.100951
0.101215
0.101267
0.10144
0.102139
0.102274
0.102428
0.1026
0.103368
0.104358
0.104988
0.104033
0.102969
0.103195
0.0941351
0.0945138
0.0954292
0.0959443
0.0966252
0.0974259
0.0978512
0.0980077
0.0982472
0.0985905
0.0987521
0.0988968
0.0990641
0.0991414
0.0992057
0.0993506
0.0993839
0.0995153
0.0995977
0.0996865
0.0998639
0.100034
0.100386
0.100882
0.10164
0.102552
0.102589
0.102113
0.101912
0.101675
0.10149
0.101122
0.101283
0.101202
0.101085
0.101374
0.101422
0.101697
0.102377
0.102359
0.10243
0.102408
0.103302
0.104324
0.105317
0.104119
0.103289
0.103658
0.0937769
0.0944259
0.0956025
0.0959296
0.0967927
0.0974393
0.0976353
0.0980529
0.098208
0.0984603
0.0986655
0.0988822
0.0990024
0.0990853
0.0991924
0.0992947
0.0993893
0.0994955
0.0995726
0.0996897
0.09985
0.10002
0.100349
0.100869
0.101563
0.102515
0.10248
0.102109
0.101951
0.101712
0.101512
0.101138
0.10136
0.101312
0.101212
0.101541
0.101595
0.101989
0.102398
0.102403
0.102413
0.102774
0.103816
0.105034
0.105849
0.104049
0.103112
0.103704
0.0938071
0.0946636
0.095281
0.0958638
0.0966664
0.0975337
0.0974553
0.0979509
0.0981807
0.0984333
0.098627
0.0989032
0.0989257
0.09904
0.0991817
0.0992785
0.0993589
0.099472
0.0995562
0.0996745
0.0998283
0.100005
0.100332
0.100836
0.101482
0.10247
0.102494
0.102091
0.101913
0.101723
0.101534
0.101217
0.101417
0.101423
0.101313
0.101692
0.101776
0.102324
0.102416
0.102478
0.102156
0.10274
0.10358
0.10549
0.106024
0.104506
0.103625
0.103328
0.0933469
0.0943393
0.0952435
0.0959202
0.0966363
0.0973251
0.0975186
0.0979349
0.0982168
0.0984263
0.0986058
0.0988123
0.0989023
0.0990217
0.0991632
0.0992666
0.0993542
0.0994421
0.0995425
0.0996489
0.099799
0.0999877
0.100295
0.100789
0.101389
0.102396
0.102516
0.102087
0.10194
0.101746
0.10167
0.101397
0.101436
0.101535
0.101394
0.101789
0.101968
0.102373
0.102274
0.102582
0.102566
0.10261
0.104216
0.106304
0.106224
0.104779
0.10429
0.10386
0.0933234
0.0941845
0.0951856
0.0956171
0.096823
0.0971303
0.0973886
0.0978371
0.0980308
0.0983623
0.0986324
0.0987505
0.098891
0.0990276
0.0990913
0.0992182
0.099327
0.0993946
0.0995139
0.0996167
0.0997616
0.0999712
0.100261
0.10075
0.101335
0.102381
0.102513
0.102128
0.101949
0.101726
0.101678
0.101506
0.101474
0.101736
0.101629
0.101927
0.101885
0.10241
0.102698
0.102667
0.102931
0.102751
0.104408
0.106332
0.106112
0.104836
0.104769
0.104143
0.0932842
0.0941298
0.0949066
0.0955502
0.0966635
0.0972586
0.0973863
0.0978523
0.0979941
0.0982194
0.098523
0.0986716
0.0988729
0.09895
0.0990697
0.0992002
0.0992961
0.0993464
0.0994951
0.0996114
0.0997342
0.0999485
0.100229
0.100723
0.101294
0.102356
0.10244
0.10211
0.101986
0.101765
0.10166
0.101624
0.101508
0.101938
0.101816
0.10208
0.102197
0.102266
0.102924
0.102774
0.102967
0.102932
0.104542
0.106952
0.107116
0.104831
0.10503
0.104675
0.0935475
0.0939975
0.0948051
0.095387
0.0966955
0.0970053
0.0974768
0.0978711
0.0979398
0.0981722
0.0984045
0.0986475
0.0988358
0.0989467
0.0990596
0.0991839
0.0992743
0.0993106
0.0994651
0.09959
0.0997089
0.0999222
0.100188
0.10067
0.101247
0.102239
0.102491
0.102103
0.102005
0.101787
0.101664
0.101703
0.101525
0.102182
0.102093
0.102316
0.102467
0.102704
0.102947
0.102901
0.102664
0.103133
0.10427
0.107705
0.107668
0.104824
0.105295
0.105211
0.0930505
0.0939983
0.0948515
0.0953156
0.0966426
0.0970262
0.0974053
0.0978759
0.0979043
0.0981031
0.0984382
0.0986618
0.0987941
0.0988671
0.0989958
0.0991684
0.0992317
0.0992963
0.0994577
0.0995671
0.0997028
0.0998928
0.100161
0.100638
0.101232
0.102246
0.102551
0.102171
0.102026
0.101805
0.101657
0.101735
0.101682
0.102412
0.102387
0.102613
0.102573
0.102761
0.102966
0.103165
0.103077
0.103421
0.104993
0.108476
0.108485
0.105263
0.105829
0.105839
0.0928877
0.0938801
0.0943575
0.0952263
0.0964245
0.0966853
0.0973378
0.0977766
0.0978675
0.0980747
0.0983583
0.0985584
0.0987447
0.0988741
0.0989719
0.099124
0.0991948
0.099303
0.0994157
0.0995327
0.099666
0.0998681
0.100136
0.100573
0.101255
0.102256
0.102583
0.102167
0.102051
0.101804
0.101663
0.101793
0.101871
0.102548
0.102795
0.102981
0.102601
0.102803
0.102965
0.103345
0.103144
0.10367
0.105586
0.10877
0.109142
0.105543
0.106067
0.106501
0.0925683
0.0938366
0.0942974
0.0953529
0.0961464
0.0967054
0.0972471
0.0976935
0.0978046
0.0980056
0.0983228
0.0985338
0.0987284
0.0988461
0.0989645
0.0991114
0.0991831
0.0992353
0.0993863
0.0995046
0.0996344
0.0998481
0.100115
0.100534
0.101237
0.102216
0.102643
0.102161
0.102044
0.101835
0.10168
0.101869
0.102124
0.102627
0.103195
0.103292
0.102467
0.102916
0.103074
0.103363
0.103072
0.103951
0.10557
0.108507
0.109288
0.106065
0.10617
0.107312
0.0923973
0.0939477
0.0941846
0.0951437
0.0958709
0.0964746
0.097136
0.0975298
0.0977757
0.0979712
0.0982456
0.0984239
0.0986817
0.0988438
0.0989086
0.0991231
0.0991546
0.0991961
0.0993359
0.0994937
0.0996009
0.0998434
0.100092
0.100482
0.101295
0.102236
0.102586
0.102179
0.102028
0.101868
0.101696
0.102161
0.102415
0.10264
0.103546
0.103584
0.102778
0.102933
0.103097
0.103176
0.102935
0.104218
0.106158
0.109892
0.110746
0.106517
0.106883
0.108277
0.0921269
0.0934009
0.0940425
0.0951163
0.0958467
0.0964497
0.096943
0.0973748
0.0978084
0.0979362
0.0982321
0.0983961
0.0986015
0.0988927
0.0988218
0.0990567
0.0991378
0.0991571
0.0992905
0.0994101
0.0995639
0.0998184
0.100069
0.100455
0.101299
0.102241
0.102621
0.102172
0.102012
0.101882
0.101765
0.102377
0.102602
0.103033
0.10347
0.103682
0.103042
0.102776
0.102879
0.103702
0.102991
0.104624
0.106715
0.109639
0.111027
0.107045
0.107961
0.109304
0.0920415
0.0929454
0.0939641
0.0949607
0.0956356
0.0964645
0.0967424
0.0974298
0.0976139
0.0979659
0.0981223
0.0983527
0.0984776
0.0988207
0.0988074
0.0989777
0.0991493
0.0991191
0.099222
0.0993723
0.0995062
0.0997932
0.100045
0.100445
0.101334
0.102228
0.102619
0.10218
0.10199
0.101928
0.10183
0.102553
0.102641
0.103248
0.103923
0.104001
0.103354
0.10327
0.103292
0.103712
0.103314
0.104994
0.107349
0.110312
0.110753
0.107707
0.108318
0.110904
0.0919358
0.0929604
0.0940484
0.0947981
0.0956453
0.0964292
0.0967607
0.0973466
0.0976049
0.0978695
0.0981127
0.0983316
0.0984686
0.0987788
0.0987231
0.09889
0.0990596
0.0990146
0.099169
0.0993478
0.0994762
0.0997718
0.100015
0.100433
0.101345
0.10236
0.102556
0.102231
0.101974
0.101973
0.101969
0.102641
0.102714
0.103219
0.10405
0.104389
0.103709
0.103664
0.10375
0.103647
0.103573
0.105561
0.106979
0.110983
0.112126
0.1085
0.107985
0.11297
0.0920974
0.0929311
0.0935653
0.0947677
0.0954188
0.0961837
0.0965308
0.0973231
0.0976465
0.0977611
0.0981076
0.0983776
0.0985175
0.0986891
0.0987054
0.0988777
0.0990082
0.0989732
0.0992074
0.0993318
0.0994591
0.0997431
0.0999909
0.100433
0.101362
0.102427
0.102615
0.102237
0.101968
0.102129
0.102176
0.102718
0.102749
0.103389
0.104224
0.104482
0.104182
0.10343
0.104194
0.10341
0.10396
0.106051
0.10745
0.112273
0.113296
0.109542
0.110244
0.116334
0.0916976
0.0927937
0.0937646
0.094463
0.0955209
0.0961083
0.0963689
0.0972617
0.097575
0.0975905
0.0981597
0.0982832
0.0984091
0.0985842
0.0987305
0.0988665
0.0990313
0.0989496
0.0991276
0.0992959
0.0994642
0.099697
0.0999719
0.100429
0.101381
0.102451
0.102655
0.102251
0.101976
0.102149
0.102407
0.102802
0.102798
0.103489
0.104328
0.104644
0.10466
0.103814
0.103993
0.103648
0.104343
0.106223
0.107835
0.111706
0.113242
0.11067
0.112822
0.120599
0.0916962
0.0926078
0.0934539
0.0944316
0.095235
0.0957296
0.0963168
0.097152
0.0973949
0.0975379
0.0979789
0.0983186
0.0982708
0.0984777
0.0986168
0.0988999
0.0989583
0.0989497
0.0990465
0.0992507
0.0993904
0.0996263
0.0999451
0.100434
0.101396
0.102504
0.102602
0.102266
0.101981
0.102145
0.102563
0.102969
0.102751
0.103676
0.104556
0.104676
0.104809
0.103741
0.104347
0.104073
0.104852
0.106925
0.108533
0.112689
0.114005
0.111914
0.113461
0.121486
0.0915596
0.0925737
0.0932133
0.0946196
0.0952022
0.095579
0.096366
0.097138
0.0971758
0.0974539
0.0978312
0.0982443
0.0982139
0.0984643
0.0986061
0.0987909
0.0988779
0.0988619
0.0989605
0.0991763
0.0993706
0.0995689
0.0999253
0.100448
0.101426
0.102482
0.102716
0.102373
0.101987
0.102173
0.102604
0.103025
0.103011
0.103672
0.104734
0.105185
0.105039
0.104473
0.104425
0.10449
0.105336
0.107819
0.109114
0.111369
0.115042
0.112924
0.114484
0.119997
0.0914641
0.0928515
0.0927422
0.0940069
0.0951326
0.0955154
0.0960741
0.0969823
0.097139
0.0973983
0.097822
0.0981509
0.0981715
0.0983663
0.0985654
0.0987011
0.0987567
0.0988981
0.0989816
0.0991502
0.0993671
0.0995259
0.0998935
0.10044
0.101418
0.102515
0.102726
0.102562
0.10198
0.102196
0.1027
0.103215
0.103053
0.104011
0.1048
0.105374
0.105342
0.105033
0.104381
0.104961
0.105836
0.108389
0.10893
0.111906
0.114672
0.112759
0.114962
0.1251
0.0914097
0.0919638
0.0926212
0.093589
0.0951836
0.0953801
0.0960704
0.0971391
0.0970771
0.0973577
0.0979008
0.0979713
0.0981614
0.0983522
0.0985457
0.0986124
0.0986447
0.0988016
0.0989282
0.0991463
0.0992806
0.0995408
0.0998944
0.100472
0.101414
0.10246
0.102978
0.102573
0.102009
0.102249
0.102769
0.103307
0.103508
0.104278
0.105431
0.105408
0.105565
0.105157
0.104127
0.104936
0.106338
0.108278
0.109416
0.111597
0.114512
0.111717
0.11417
0.130234
0.0915858
0.0914023
0.0923745
0.0934922
0.0953897
0.0952942
0.0960709
0.0969312
0.0970039
0.0973941
0.0977823
0.098005
0.0982108
0.0984032
0.098577
0.0986768
0.0986114
0.098808
0.0989447
0.0990552
0.0992142
0.0994974
0.0998941
0.100462
0.101401
0.102475
0.103092
0.102685
0.102016
0.102338
0.103146
0.103384
0.103975
0.104407
0.10572
0.106148
0.105916
0.10588
0.104558
0.104386
0.107122
0.109348
0.109973
0.110173
0.112979
0.112341
0.117475
0.135213
0.0905666
0.091343
0.0923195
0.0933059
0.0951966
0.0951748
0.0961047
0.0970127
0.0969623
0.0971714
0.0977098
0.0979917
0.0980693
0.0982892
0.098412
0.098588
0.098593
0.0987429
0.0988895
0.0990368
0.0992316
0.0994987
0.0998867
0.100482
0.101419
0.102495
0.103084
0.102712
0.102018
0.102452
0.103498
0.103765
0.104522
0.104425
0.105806
0.106551
0.106059
0.106161
0.105199
0.104846
0.107058
0.109267
0.110239
0.110293
0.112485
0.112714
0.120934
0.130369
0.089915
0.0915399
0.0922209
0.0932184
0.0949833
0.095114
0.0957931
0.096716
0.0970121
0.0971354
0.0975857
0.0979213
0.0980508
0.0983633
0.0983041
0.0985487
0.0985528
0.098783
0.0988798
0.0990207
0.0991742
0.0995118
0.0999211
0.100466
0.101427
0.10249
0.103141
0.102804
0.102117
0.102565
0.103949
0.104109
0.104863
0.104884
0.106301
0.10659
0.106681
0.106275
0.105968
0.104739
0.106548
0.109115
0.109057
0.109957
0.111334
0.112921
0.12426
0.134815
0.0898065
0.090909
0.0924778
0.0930622
0.0947154
0.0949979
0.0955458
0.096614
0.096751
0.0969194
0.0975236
0.0977899
0.0979547
0.098237
0.0983489
0.0984526
0.0985392
0.0987085
0.0988134
0.0990264
0.0991751
0.0994934
0.0998885
0.100473
0.101474
0.102463
0.103159
0.102847
0.102214
0.102685
0.104371
0.104349
0.104749
0.10502
0.10667
0.107249
0.107336
0.107155
0.106167
0.10509
0.107142
0.107593
0.108767
0.109578
0.110428
0.111378
0.124093
0.137777
0.0896864
0.090965
0.0921142
0.0927804
0.0943087
0.0949466
0.0955578
0.0966889
0.0968176
0.0968806
0.0973234
0.0978709
0.097841
0.0981547
0.098289
0.0983436
0.0985088
0.0986474
0.098812
0.0989272
0.0991762
0.0994976
0.0999062
0.100475
0.101571
0.102503
0.103208
0.102937
0.102354
0.102839
0.104632
0.104357
0.105049
0.105997
0.106779
0.107458
0.107535
0.107326
0.106096
0.105326
0.106865
0.107856
0.108283
0.108842
0.109256
0.111128
0.123115
0.128814
0.0894904
0.0905394
0.0921818
0.0926338
0.0942624
0.0948818
0.0953721
0.0965487
0.0966241
0.0967698
0.0972903
0.0977101
0.0977666
0.0980064
0.098259
0.0983956
0.0985199
0.0986392
0.0988669
0.0989187
0.099237
0.0994937
0.0998922
0.100517
0.101703
0.102538
0.103194
0.102871
0.102512
0.10303
0.104719
0.104467
0.105149
0.106626
0.106985
0.107418
0.107768
0.107523
0.106922
0.105806
0.107342
0.10798
0.107994
0.108548
0.108776
0.110819
0.120856
0.129822
0.0893109
0.0904204
0.0917684
0.0923956
0.0944626
0.0947955
0.0954157
0.0963349
0.0964708
0.096701
0.0973627
0.0975977
0.0977399
0.0979968
0.098215
0.0982905
0.0985758
0.0986249
0.0987908
0.0989065
0.0991895
0.0995008
0.0999259
0.100527
0.101801
0.102545
0.103193
0.102906
0.102723
0.103295
0.10476
0.104532
0.105403
0.107052
0.106571
0.108155
0.107506
0.107457
0.107034
0.106347
0.106512
0.107583
0.107693
0.108006
0.108277
0.111387
0.123818
0.127605
0.0891688
0.0899278
0.0918407
0.0923345
0.0939278
0.094822
0.0952715
0.0959827
0.0964293
0.0965881
0.097157
0.0974145
0.0976135
0.0979845
0.0981237
0.0982855
0.0984801
0.0986251
0.0988238
0.0989464
0.0991871
0.0995505
0.0999444
0.10057
0.101886
0.102653
0.103165
0.102952
0.102938
0.10359
0.104833
0.104584
0.105596
0.10699
0.106857
0.10767
0.10799
0.108458
0.107579
0.106543
0.107478
0.106185
0.107043
0.107773
0.108513
0.112272
0.119306
0.125262
0.0892951
0.0895554
0.0912365
0.0922653
0.093391
0.0945355
0.0951451
0.0957851
0.0963512
0.0965264
0.0972204
0.0974059
0.0976093
0.0979807
0.0981779
0.0982765
0.0983786
0.0987148
0.0987274
0.098872
0.0992114
0.0995052
0.0999542
0.100596
0.101948
0.102678
0.103157
0.103026
0.103089
0.10379
0.104734
0.105053
0.105738
0.106909
0.107194
0.108118
0.108123
0.108538
0.108348
0.107532
0.107439
0.106252
0.106513
0.107684
0.109272
0.113992
0.119625
0.124297
0.0884265
0.089438
0.0911082
0.0923165
0.0933492
0.0947707
0.0951065
0.095687
0.0964412
0.0964817
0.0970642
0.0973955
0.0976684
0.0979376
0.0981004
0.098275
0.0983809
0.0986695
0.0987217
0.0988753
0.0992177
0.0995729
0.099975
0.100624
0.101945
0.10278
0.103137
0.103077
0.10311
0.103789
0.104763
0.105547
0.106321
0.107129
0.107459
0.108257
0.108663
0.108632
0.108404
0.107697
0.107382
0.105821
0.106379
0.10757
0.108559
0.111676
0.118657
0.121582
0.088494
0.0895883
0.0907688
0.0919644
0.0932646
0.0943141
0.094864
0.0956897
0.0961545
0.0963617
0.0970013
0.097399
0.0974812
0.0979177
0.0980917
0.0982778
0.0983889
0.0985913
0.0987083
0.0988752
0.0992361
0.0995742
0.0999987
0.100643
0.101918
0.102847
0.10307
0.10313
0.103079
0.103852
0.104824
0.105764
0.106392
0.107023
0.107565
0.107697
0.108574
0.108012
0.108656
0.107313
0.106579
0.10582
0.106272
0.107699
0.109021
0.113659
0.118413
0.119454
0.0877648
0.0887066
0.0905591
0.0918144
0.0932877
0.0940765
0.0948778
0.0953276
0.0961659
0.0963246
0.0969892
0.0974011
0.0974747
0.0979729
0.0980917
0.0982958
0.0983565
0.0986244
0.0988025
0.0988853
0.099236
0.0996049
0.10002
0.100658
0.101921
0.102905
0.103121
0.103283
0.103189
0.103959
0.104746
0.105536
0.106314
0.10692
0.107526
0.108135
0.108725
0.108912
0.107945
0.108408
0.107123
0.105941
0.106572
0.107497
0.109442
0.11209
0.120208
0.118346
0.0875964
0.0886395
0.0902298
0.0915244
0.092829
0.0936431
0.0948636
0.0954747
0.0958721
0.0962086
0.0969731
0.0974033
0.0974361
0.097808
0.0980883
0.0982724
0.0983607
0.0984975
0.0987849
0.0989511
0.0992731
0.0996436
0.100051
0.100682
0.101921
0.10303
0.103168
0.103276
0.103194
0.103968
0.104834
0.105519
0.106364
0.106747
0.107923
0.107999
0.108594
0.108569
0.108848
0.108346
0.107697
0.106019
0.107149
0.107749
0.110128
0.113734
0.119655
0.116999
0.0873203
0.0889235
0.0905262
0.0913511
0.0927634
0.0937795
0.0948448
0.09513
0.0958143
0.0961657
0.0970186
0.0974192
0.0974336
0.097946
0.0981158
0.0983643
0.0983177
0.0984725
0.0988142
0.0988901
0.0992499
0.0996534
0.100066
0.100701
0.101938
0.103003
0.103141
0.103154
0.103377
0.103915
0.104778
0.105517
0.106041
0.106465
0.107702
0.10822
0.108462
0.10941
0.108146
0.108489
0.108892
0.106501
0.107064
0.107679
0.111548
0.115236
0.116201
0.11596
0.0871403
0.0881382
0.0895789
0.0911652
0.092872
0.0934539
0.0944396
0.0951519
0.0957766
0.0960821
0.0971069
0.0975392
0.0974248
0.0979033
0.09819
0.0982417
0.0983049
0.0984674
0.0987669
0.0989018
0.0992468
0.0996498
0.100088
0.100736
0.10195
0.102934
0.103184
0.103121
0.10342
0.10389
0.104744
0.105453
0.106117
0.106554
0.107486
0.107936
0.108134
0.108469
0.109266
0.108441
0.109386
0.106008
0.107702
0.10817
0.113358
0.112542
0.118294
0.11629
0.0868126
0.0872606
0.0896085
0.090903
0.0921483
0.0933024
0.0943013
0.0950859
0.0957412
0.0962477
0.0969633
0.0973564
0.0974333
0.0978954
0.098149
0.0980775
0.0982829
0.0984889
0.0988488
0.0989059
0.0992539
0.0996111
0.100109
0.10079
0.102022
0.102926
0.103154
0.1031
0.103356
0.103877
0.104584
0.105151
0.106005
0.106608
0.107147
0.10795
0.107628
0.108457
0.109376
0.107795
0.109445
0.106918
0.107934
0.107934
0.111686
0.11347
0.117881
0.118579
0.0870856
0.0869628
0.0889116
0.0906414
0.09174
0.0929041
0.0944494
0.0950979
0.0954441
0.0961029
0.0967003
0.0972133
0.0974061
0.0978048
0.0980527
0.0980706
0.0983696
0.0984947
0.0987772
0.0989335
0.0992455
0.0996132
0.100118
0.100824
0.102084
0.102852
0.103083
0.10302
0.103359
0.103818
0.104495
0.105002
0.105618
0.106129
0.107009
0.107233
0.107568
0.108529
0.109209
0.108885
0.109644
0.10716
0.107725
0.10915
0.113185
0.11407
0.113969
0.118207
0.0863509
0.0868247
0.0888326
0.0904648
0.0916032
0.0928915
0.0940422
0.0951174
0.0953048
0.0960281
0.0966659
0.0970421
0.0973318
0.0978734
0.0979221
0.09803
0.0982611
0.0984814
0.0987208
0.098953
0.0992517
0.0996168
0.100108
0.100875
0.102096
0.102816
0.103023
0.10302
0.103353
0.103878
0.104345
0.10499
0.105549
0.10608
0.10669
0.10715
0.107396
0.108429
0.10916
0.107765
0.108613
0.107931
0.109072
0.107848
0.110423
0.113317
0.114167
0.117589
0.0861993
0.0866373
0.088738
0.0900108
0.0913973
0.0929054
0.09399
0.0950329
0.0952447
0.0960377
0.0967115
0.0968267
0.0973144
0.0976981
0.097768
0.0980174
0.0982363
0.098488
0.098665
0.0989225
0.0992358
0.0996286
0.100074
0.100907
0.102112
0.102767
0.102919
0.103034
0.103254
0.103739
0.104216
0.105091
0.105574
0.10606
0.106585
0.106802
0.10762
0.107985
0.108654
0.108089
0.109544
0.106935
0.109238
0.109545
0.110527
0.11263
0.113474
0.117073
0.0860781
0.0866313
0.0888241
0.0899975
0.0913793
0.0926201
0.0940645
0.0950309
0.0951085
0.0958797
0.0964002
0.0968514
0.0973685
0.0977545
0.0978291
0.0979904
0.0983502
0.0983946
0.0986934
0.0990039
0.0992958
0.0996072
0.10008
0.100946
0.102103
0.102581
0.102895
0.10294
0.103256
0.103709
0.104152
0.105081
0.10559
0.105893
0.106375
0.106707
0.107529
0.107866
0.108497
0.108026
0.109571
0.107728
0.109373
0.109603
0.109609
0.111717
0.11215
0.115812
0.0860407
0.0856847
0.088218
0.0903592
0.0913804
0.0926398
0.093427
0.0952464
0.0950419
0.095642
0.096375
0.0968191
0.0971905
0.0975979
0.0976919
0.0980723
0.0982987
0.0983936
0.0986259
0.0989392
0.0992438
0.0996626
0.10015
0.100987
0.102101
0.102528
0.102795
0.1029
0.103225
0.103718
0.104146
0.105067
0.105113
0.105864
0.10641
0.106108
0.106782
0.106855
0.107361
0.108416
0.108278
0.106864
0.109345
0.108503
0.109386
0.111596
0.111455
0.115226
0.0854109
0.0859345
0.0880242
0.0897003
0.091173
0.0926739
0.0930711
0.0949388
0.094987
0.0957424
0.0964115
0.0968528
0.0972211
0.0974962
0.0976919
0.0979711
0.0982473
0.0983726
0.0987303
0.0990014
0.0991952
0.0996045
0.100133
0.101024
0.102108
0.102469
0.102844
0.102828
0.103128
0.103709
0.103994
0.104982
0.104961
0.105594
0.105706
0.10646
0.106982
0.106762
0.107385
0.108394
0.108445
0.107889
0.108062
0.110001
0.108924
0.110955
0.110994
0.111514
0.0853253
0.0851813
0.0880065
0.0891207
0.0915818
0.0925956
0.0929487
0.094466
0.0951108
0.0954513
0.0962241
0.0968215
0.0971875
0.0974647
0.0976557
0.0981061
0.0982215
0.098451
0.0987195
0.0989183
0.099271
0.0996507
0.100136
0.101077
0.102045
0.102442
0.102766
0.102769
0.103027
0.103492
0.10419
0.104956
0.104743
0.105249
0.105575
0.105707
0.106357
0.106471
0.107261
0.107778
0.108387
0.108419
0.108297
0.109844
0.109113
0.110793
0.111413
0.112872
0.0855905
0.084492
0.0879291
0.0889516
0.0910301
0.0923571
0.0927721
0.0940993
0.0947954
0.09542
0.0963817
0.0968328
0.0973325
0.0973969
0.097671
0.0980772
0.0982243
0.0983781
0.0987043
0.0989274
0.0992463
0.0995895
0.100123
0.10111
0.10206
0.10245
0.102808
0.10272
0.102891
0.103438
0.104151
0.104784
0.1045
0.105018
0.105437
0.105561
0.106263
0.106596
0.107206
0.107351
0.108174
0.10742
0.107937
0.109731
0.109173
0.109923
0.109571
0.112201
0.0847897
0.0843075
0.0880023
0.0880857
0.091208
0.0923418
0.0930204
0.0941129
0.0948504
0.0953142
0.0961036
0.0969283
0.0971707
0.0975008
0.0976801
0.098077
0.098186
0.098488