/*--------------------------------*- C++ -*----------------------------------*\
  =========                 |
  \\      /  F ield         | OpenFOAM: The Open Source CFD Toolbox
   \\    /   O peration     | Website:  https://openfoam.org
    \\  /    A nd           | Version:  10
     \\/     M anipulation  |
\*---------------------------------------------------------------------------*/
FoamFile
{
    format      ascii;
    class       volScalarField;
    location    "10";
    object      nut;
}
// * * * * * * * * * * * * * * * * * * * * * * * * * * * * * * * * * * * * * //

dimensions      [0 2 -1 0 0 0 0];

internalField   nonuniform List<scalar> 
38016
(
0.00618198
0.00616636
0.00619212
0.00619274
0.00619093
0.00618092
0.0061905
0.00619692
0.0061948
0.00619951
0.00619872
0.00619818
0.0062007
0.006201
0.00620167
0.00620049
0.006201
0.00620235
0.00620331
0.00620432
0.0062076
0.00621107
0.00621841
0.00623766
0.00460666
0.00209002
0.0010652
0.000616947
0.000413704
0.000324097
0.000281205
0.000253709
0.000229943
0.000207565
0.00018426
0.000160445
0.000140671
0.000122674
0.000105711
9.05397e-05
7.77588e-05
6.71689e-05
5.777e-05
4.93061e-05
4.19457e-05
3.52244e-05
2.97491e-05
2.42797e-05
0.00618923
0.0061538
0.00617757
0.0061916
0.00619066
0.00617619
0.0061855
0.00619552
0.00619068
0.00620242
0.006199
0.00619806
0.00620286
0.00620076
0.00620181
0.00619944
0.006201
0.00620145
0.00620334
0.00620439
0.00620741
0.00621069
0.00621824
0.0062321
0.00518622
0.00240633
0.00126573
0.000751558
0.00051538
0.00041126
0.000362897
0.000333128
0.000307571
0.00028207
0.000253197
0.000222333
0.000195235
0.000169299
0.000143247
0.000119629
9.97559e-05
8.34192e-05
6.91445e-05
5.6885e-05
4.71043e-05
3.87289e-05
3.20868e-05
2.58012e-05
0.00617017
0.00616824
0.0061703
0.00620004
0.00619317
0.00619144
0.00618675
0.00619606
0.0061934
0.00619975
0.00619827
0.00619878
0.00620092
0.00619978
0.00620204
0.00620139
0.00620053
0.00620212
0.00620347
0.00620429
0.00620778
0.00621076
0.00621625
0.00623779
0.0055558
0.00264941
0.00142205
0.000860899
0.000603038
0.000489778
0.000440905
0.000413651
0.000391466
0.000369932
0.000342402
0.000310384
0.000278962
0.000243181
0.00020136
0.000161694
0.000128821
0.000102738
8.10518e-05
6.37308e-05
5.14314e-05
4.15906e-05
3.40491e-05
2.7221e-05
0.00618107
0.00615665
0.00618344
0.00619373
0.00619394
0.00618649
0.00618822
0.00620093
0.00619258
0.0062017
0.00619798
0.00619907
0.0062009
0.00619996
0.00620411
0.00619968
0.00620151
0.00620256
0.00620375
0.00620476
0.00620808
0.00621143
0.00621993
0.00624056
0.00576176
0.0028056
0.00153965
0.000953198
0.000677786
0.000559817
0.000513855
0.000491561
0.000475474
0.000460452
0.000436557
0.000402034
0.000359327
0.000302374
0.000236648
0.000180121
0.000137638
0.000106384
8.21568e-05
6.38149e-05
5.13776e-05
4.19147e-05
3.46449e-05
2.8092e-05
0.00617587
0.00619062
0.00617922
0.00619413
0.00619591
0.00619184
0.00619202
0.00620078
0.00618833
0.00619441
0.00619571
0.00619897
0.00619963
0.00620232
0.00620257
0.00620153
0.00620142
0.00620234
0.00620322
0.00620577
0.00620839
0.0062114
0.00621952
0.00623929
0.00592609
0.00293952
0.00163045
0.00102203
0.000736098
0.000617512
0.000573686
0.000557035
0.000547744
0.000539097
0.000519169
0.000479306
0.000419078
0.000337306
0.000252247
0.000186517
0.000140739
0.000107738
8.30047e-05
6.47083e-05
5.26324e-05
4.3556e-05
3.65804e-05
3.0219e-05
0.00616946
0.00617084
0.00618396
0.00619202
0.00618812
0.00619302
0.00619228
0.00620281
0.00618875
0.00619588
0.00619811
0.00619879
0.0062019
0.00619945
0.00620158
0.00620088
0.00620115
0.00620399
0.00620362
0.00620536
0.00620857
0.00621114
0.00621717
0.00624149
0.00606099
0.00305417
0.00171789
0.00108786
0.000791293
0.000667549
0.000626001
0.000614606
0.000612466
0.000611589
0.000595275
0.000549174
0.000468875
0.000362861
0.000263627
0.000192728
0.000144949
0.000111147
8.58638e-05
6.75759e-05
5.56179e-05
4.68602e-05
3.99999e-05
3.38344e-05
0.00615417
0.00618851
0.0061953
0.00618261
0.00618735
0.00619597
0.00620194
0.00620395
0.00618973
0.00619912
0.00619947
0.00620073
0.00619982
0.00619993
0.00620118
0.00619976
0.00620306
0.00620306
0.0062035
0.00620492
0.00620883
0.00621125
0.00622004
0.00623458
0.00621285
0.00317197
0.00180286
0.0011504
0.000843316
0.0007156
0.000677531
0.000672428
0.000679234
0.000689047
0.00067893
0.000626386
0.000520561
0.000388449
0.000275975
0.000200567
0.00015123
0.0001166
9.0691e-05
7.20796e-05
6.01557e-05
5.17798e-05
4.47913e-05
3.89465e-05
0.00617469
0.00617886
0.00618267
0.00619526
0.00618702
0.00619864
0.00618875
0.0061983
0.00619615
0.00619689
0.00620016
0.00619457
0.00620389
0.0061995
0.00620124
0.00620061
0.00620379
0.00620239
0.00620361
0.00620584
0.00620953
0.00621199
0.00622093
0.00623823
0.00624578
0.00329528
0.00189071
0.00121732
0.000897742
0.000767046
0.000732234
0.000735663
0.000753517
0.000778314
0.000779064
0.000717268
0.000576236
0.000414275
0.000289358
0.000210175
0.000159316
0.000123708
9.69534e-05
7.79041e-05
6.60563e-05
5.8182e-05
5.10444e-05
4.56143e-05
0.00617295
0.00618579
0.00616981
0.00619337
0.00619262
0.00620505
0.00619424
0.00619683
0.00618814
0.00620582
0.00619982
0.00619701
0.00619956
0.00620171
0.00619998
0.00619899
0.0062024
0.0062011
0.00620314
0.00620628
0.00620961
0.00621259
0.00622239
0.00623476
0.00625749
0.00344308
0.00199196
0.0012868
0.000956942
0.0008231
0.000792205
0.000804354
0.000836964
0.000883009
0.000901464
0.0008249
0.000634711
0.00043945
0.000303766
0.000221199
0.000168977
0.000132739
0.000105045
8.53331e-05
7.34578e-05
6.65568e-05
5.88918e-05
5.41588e-05
0.00618132
0.00619492
0.00618124
0.00619968
0.0061924
0.00619413
0.00619427
0.00619821
0.00619519
0.00620181
0.00620015
0.00619615
0.00620301
0.00620112
0.00620089
0.00620016
0.00620278
0.00620119
0.00620295
0.0062063
0.00620993
0.0062133
0.0062242
0.00623814
0.0062607
0.00359927
0.00209968
0.0013629
0.00101709
0.000882427
0.000856272
0.000880312
0.000931952
0.00100825
0.00105466
0.000952198
0.000694285
0.000464972
0.000319331
0.000233472
0.000180462
0.000143387
0.000114888
9.45334e-05
8.27777e-05
7.71174e-05
6.84435e-05
6.48507e-05
0.00618979
0.00620839
0.0061827
0.00619985
0.00619108
0.00619848
0.00619442
0.00618994
0.00619971
0.006204
0.00620475
0.00619495
0.00619838
0.00620284
0.00619937
0.00619844
0.00620321
0.00620157
0.00620261
0.00620592
0.00620994
0.00621404
0.0062265
0.00624268
0.0062674
0.00376749
0.00221564
0.00144888
0.00108514
0.000946627
0.000926135
0.000963875
0.00104145
0.00116215
0.00125341
0.00110367
0.000754023
0.000490524
0.000336591
0.000248427
0.000194524
0.000156429
0.000126743
0.000105355
9.40378e-05
9.01356e-05
8.01812e-05
7.79486e-05
0.00617342
0.00620341
0.00618908
0.00618758
0.0061898
0.00619589
0.00619544
0.00620319
0.00619579
0.00619843
0.00619909
0.0061972
0.0061993
0.00620044
0.00620127
0.00619992
0.00620331
0.00620166
0.00620182
0.00620635
0.00621021
0.00621477
0.00622984
0.00624998
0.00626774
0.00395539
0.00233548
0.00153851
0.00116046
0.00101652
0.00100306
0.00105849
0.00116995
0.00135517
0.00152298
0.00128256
0.000811986
0.000517013
0.000355813
0.000265281
0.000210565
0.000171417
0.000140555
0.000118382
0.000107468
0.000105929
9.41555e-05
9.39847e-05
0.0061892
0.0061916
0.00616715
0.0061971
0.00617918
0.00619619
0.00619564
0.00619508
0.00619676
0.00619293
0.00619828
0.00619455
0.00620264
0.00619733
0.00620069
0.00619939
0.00620264
0.00620198
0.00620217
0.00620672
0.00620976
0.00621577
0.00623162
0.00625029
0.00628141
0.00416
0.00247324
0.00163749
0.00124022
0.00109303
0.00108766
0.00116493
0.00132237
0.00160726
0.00190986
0.0014867
0.000869533
0.000545802
0.00037788
0.000285343
0.000229579
0.000188968
0.0001564
0.000133496
0.00012316
0.00012492
0.000110623
0.000113048
0.0061721
0.0062122
0.00617408
0.00619024
0.00619061
0.00619324
0.00619099
0.00620261
0.00619681
0.00618984
0.00620056
0.00619815
0.0062008
0.00620046
0.00620362
0.00620032
0.00620194
0.00620233
0.00620357
0.00620757
0.00621008
0.00621658
0.0062317
0.00625784
0.00629274
0.00439076
0.0026233
0.00174444
0.0013283
0.00117695
0.00118107
0.0012853
0.00150557
0.00194841
0.0025088
0.00170264
0.000924195
0.000577382
0.000402911
0.000308512
0.000250914
0.000208457
0.000174835
0.000151066
0.00014138
0.000147989
0.000130143
0.000135176
0.00617507
0.00622144
0.00614592
0.00619
0.00618892
0.00618759
0.00618977
0.00619666
0.00619831
0.00619642
0.00619467
0.0061971
0.00619829
0.00620053
0.00620406
0.00620053
0.00620252
0.0062021
0.0062019
0.00620746
0.00620987
0.00621729
0.00623016
0.00625778
0.00628397
0.00464553
0.00278117
0.00185938
0.00142327
0.00126888
0.0012846
0.00142244
0.00172737
0.00243653
0.00352683
0.00189598
0.000977691
0.000611547
0.000430741
0.000334436
0.000274419
0.00022998
0.000194759
0.000170392
0.000162045
0.000175296
0.0001527
0.000160156
0.00615877
0.00620922
0.00615512
0.00618388
0.00619027
0.00619382
0.00619526
0.00619352
0.00619782
0.00619899
0.00619498
0.0061983
0.00619873
0.00620209
0.00620324
0.00620032
0.00620189
0.00620478
0.00620169
0.0062069
0.00620984
0.00621778
0.0062333
0.00625603
0.00629147
0.00491634
0.00296754
0.00198004
0.00152938
0.00136977
0.00140024
0.0015787
0.00199837
0.00317831
0.00539416
0.00202499
0.00102579
0.000648847
0.000463137
0.000363371
0.000301068
0.000253147
0.000217083
0.000191856
0.000184691
0.000206819
0.00017776
0.000187371
0.00615554
0.00619434
0.00615044
0.00617234
0.00619379
0.00619295
0.00620191
0.00619307
0.00620926
0.00619835
0.00619383
0.0061998
0.00619986
0.00619851
0.00620354
0.00619913
0.00619991
0.00620301
0.00620122
0.00620708
0.00620986
0.00621709
0.00623283
0.00625687
0.00628258
0.00521169
0.00316568
0.00212552
0.00164417
0.00148051
0.00152905
0.00175643
0.00232716
0.00438297
0.00618598
0.00205909
0.00106868
0.000686376
0.000497967
0.000395212
0.000329513
0.000277461
0.000241176
0.000215215
0.000208899
0.000242092
0.000206423
0.000214574
0.00618666
0.00617583
0.00614648
0.00616173
0.00618633
0.00618337
0.00619665
0.00619298
0.00620383
0.00619552
0.00619245
0.00620566
0.0062029
0.00619809
0.00620337
0.00620344
0.00620143
0.00620067
0.0062006
0.00620648
0.00621006
0.00621646
0.00623343
0.00625091
0.0062836
0.00554002
0.00337671
0.00227923
0.00177047
0.00160545
0.00167232
0.00195774
0.00271566
0.00618031
0.00618656
0.00201016
0.00109545
0.000720479
0.000532783
0.000428202
0.000358875
0.000302317
0.000267063
0.000240033
0.000232685
0.000280453
0.000237475
0.000241904
0.00618952
0.0061924
0.00615031
0.0061493
0.00619561
0.00619312
0.00620004
0.00619455
0.00620653
0.00619903
0.00619169
0.00620124
0.00620068
0.00619951
0.00620133
0.00620375
0.00620017
0.00620241
0.00620033
0.00620551
0.00620999
0.00621592
0.00623212
0.006252
0.00628207
0.0059005
0.00361068
0.00244382
0.00190788
0.00174321
0.00183182
0.00218168
0.00314562
0.00618078
0.00523091
0.00190926
0.00110234
0.000748908
0.000566893
0.000461673
0.000388256
0.000327044
0.000293457
0.000265998
0.000256593
0.000319815
0.000270986
0.000265547
0.00618833
0.00619102
0.0061609
0.00614479
0.00620164
0.00620049
0.0062004
0.00619424
0.00619659
0.0061944
0.00619445
0.00620187
0.00620129
0.00619544
0.00619799
0.00620371
0.00619808
0.0062038
0.00620169
0.0062064
0.00621018
0.0062158
0.0062324
0.00625212
0.00627795
0.00627819
0.00384892
0.00262938
0.00206065
0.00189415
0.00200781
0.00242537
0.00356073
0.00618152
0.00383783
0.00178339
0.00109661
0.000774112
0.000599456
0.000495243
0.000417203
0.000350814
0.00032078
0.000292338
0.000276431
0.000358706
0.000305499
0.000285202
0.00621428
0.00617047
0.006188
0.0061502
0.00619665
0.00619987
0.00620109
0.00620056
0.00619543
0.00619504
0.00619363
0.00620437
0.00620049
0.00619591
0.00619958
0.00620157
0.00620135
0.00620579
0.00620338
0.00620689
0.00621067
0.00621595
0.00623054
0.00625018
0.00627556
0.0062943
0.00412212
0.00282007
0.00222985
0.00206255
0.00220218
0.00267788
0.00385602
0.0054952
0.00301505
0.00165672
0.00108948
0.000798052
0.000632756
0.000528282
0.00044452
0.000374054
0.000348037
0.000316402
0.000291955
0.000390819
0.000336855
0.000297517
0.00619905
0.00616536
0.00616946
0.00613231
0.00618679
0.00620887
0.00620776
0.00619317
0.00618943
0.00620002
0.00619551
0.00619954
0.00619969
0.00619482
0.00619558
0.00620351
0.00620054
0.00620378
0.0062029
0.00620697
0.00621118
0.00621586
0.00623037
0.00624801
0.00627149
0.00629756
0.00440874
0.00304024
0.00241454
0.00224702
0.00241216
0.00292505
0.00394299
0.00419487
0.00250893
0.00154924
0.00108333
0.000823788
0.000666714
0.000560795
0.000469957
0.000394599
0.000374368
0.000336777
0.00029996
0.000409753
0.000364472
0.000302415
0.00618039
0.00616661
0.00616869
0.00615208
0.00620047
0.00621157
0.00619572
0.00619553
0.00619359
0.00619361
0.00619436
0.00619945
0.00619875
0.00619036
0.0061978
0.00620069
0.00620147
0.00620622
0.0062041
0.00620695
0.00621231
0.00621674
0.00622887
0.00624812
0.00626854
0.00629632
0.00471307
0.00327001
0.00261393
0.00244883
0.00263514
0.00314297
0.0038249
0.00340163
0.00218379
0.00146545
0.00107993
0.00085055
0.000699054
0.000591917
0.000493045
0.000415673
0.00040172
0.000355039
0.000301788
0.00041383
0.000383689
0.000301299
0.00618318
0.00619666
0.00616284
0.00616131
0.00619873
0.00621828
0.00618713
0.0062011
0.00619317
0.00619339
0.00619521
0.00620005
0.00619367
0.00619131
0.00620095
0.00619969
0.00619985
0.00620545
0.00620494
0.00620698
0.00621237
0.0062176
0.0062289
0.00624751
0.00626644
0.00629725
0.00503668
0.00351279
0.00282732
0.00266701
0.00286621
0.00331396
0.00359004
0.00289559
0.00196207
0.00140014
0.00107897
0.000877955
0.00073063
0.000621478
0.00051222
0.00043335
0.000424164
0.00036725
0.000297402
0.000408369
0.000398967
0.000296715
0.00613694
0.00617375
0.00617616
0.00616816
0.00619923
0.00620556
0.00619144
0.00620191
0.0061958
0.00619642
0.00619456
0.00619732
0.00619684
0.00619422
0.00620185
0.00619992
0.0061999
0.00620452
0.00620539
0.006206
0.00621192
0.00621715
0.00622759
0.00624591
0.00626209
0.00629369
0.00537374
0.00376566
0.00305731
0.00289981
0.00310133
0.00342544
0.00332224
0.00255157
0.00180194
0.00134778
0.00108006
0.000902693
0.000759722
0.000648768
0.000531635
0.000448514
0.000447166
0.000375505
0.000289928
0.00039527
0.000409427
0.000293707
0.00615025
0.00615273
0.00619049
0.00615763
0.00621586
0.00620196
0.00618075
0.00619769
0.00618374
0.00619934
0.00619502
0.00619743
0.0061975
0.00619608
0.00619819
0.00619842
0.00620025
0.00620315
0.00620433
0.0062069
0.00621175
0.00621625
0.00622659
0.0062449
0.00626101
0.00629463
0.00571471
0.00403279
0.00329496
0.00314286
0.00332355
0.00346887
0.00306906
0.00230713
0.00168486
0.00130658
0.00107977
0.000926582
0.000791148
0.00067289
0.000547585
0.000462563
0.000464356
0.000376354
0.000280068
0.000378556
0.000414169
0.000288672
0.00616121
0.006182
0.00616728
0.00615895
0.00621157
0.00621536
0.00618514
0.00619913
0.00618137
0.00619215
0.00619192
0.00619391
0.0061983
0.00619107
0.00619604
0.00619899
0.00619959
0.00620125
0.00620705
0.00620875
0.00621217
0.00621652
0.00622614
0.00624471
0.0062604
0.00629465
0.00603756
0.00429782
0.00354624
0.00339327
0.00352368
0.00345501
0.00284749
0.00212649
0.0015949
0.00127376
0.00108463
0.000947536
0.000818716
0.000693642
0.000558419
0.000474294
0.000476324
0.000375317
0.000272599
0.0003618
0.000414013
0.000282134
0.00619986
0.00620424
0.00617297
0.00614657
0.00621606
0.00620901
0.0062036
0.00621165
0.00618706
0.0061921
0.00618643
0.00619309
0.00619665
0.00619766
0.0061985
0.00619951
0.00620178
0.00619915
0.00620596
0.00620863
0.00621076
0.00621625
0.00622506
0.00624347
0.00625997
0.00628897
0.00627323
0.00455591
0.00379177
0.00364159
0.00369316
0.00339742
0.00266111
0.00199104
0.0015262
0.00124816
0.00108943
0.000972164
0.000841547
0.000710361
0.000563761
0.000483155
0.000480482
0.000371472
0.000264222
0.000347191
0.00040975
0.00027187
0.00616665
0.00620577
0.00617557
0.00617396
0.00621849
0.00620612
0.00620925
0.00621475
0.00618693
0.00618371
0.00619545
0.00619257
0.00619398
0.00619677
0.00619478
0.00619988
0.00620047
0.00620229
0.00620697
0.00620852
0.00620944
0.00621619
0.0062253
0.0062431
0.00626086
0.00629095
0.00627582
0.00479667
0.00403619
0.00387837
0.00382118
0.00331209
0.00251094
0.00188669
0.00147221
0.00122803
0.00109245
0.000991104
0.000860504
0.000723124
0.000569154
0.000489068
0.000483101
0.000365256
0.000257342
0.000336929
0.000402097
0.000257734
0.00613754
0.00619972
0.00615818
0.00618793
0.00620671
0.00619605
0.00620576
0.0062145
0.00618355
0.00618977
0.00619567
0.00619354
0.00619439
0.00619754
0.00619594
0.00619892
0.00619839
0.00620348
0.00620596
0.00620981
0.00620923
0.00621717
0.00622529
0.00624025
0.00626421
0.00629263
0.00627942
0.00502293
0.0042642
0.00409201
0.003902
0.00321416
0.00238825
0.00180317
0.0014307
0.00121258
0.0010946
0.0010079
0.000875234
0.000729845
0.000568392
0.000490977
0.000479398
0.000355935
0.000251255
0.000329657
0.000390588
0.000241036
0.00614459
0.0061988
0.00615011
0.00620069
0.00618679
0.00619848
0.00621109
0.00621233
0.00619467
0.00618432
0.00619868
0.00619807
0.00619494
0.0061936
0.00619327
0.00619847
0.00620267
0.00619887
0.00620576
0.0062078
0.00620964
0.00621864
0.00622589
0.00623963
0.0062645
0.00629155
0.00628228
0.00521763
0.00446814
0.00427156
0.0039328
0.00311094
0.00228779
0.00173508
0.00139723
0.00119954
0.00109506
0.00102388
0.000887399
0.000730375
0.000562748
0.000488929
0.000468632
0.000345208
0.000245916
0.000327128
0.000377618
0.000223202
0.00615531
0.0062222
0.0061634
0.00619005
0.00617798
0.0061866
0.00620502
0.00620649
0.00620312
0.00619139
0.0061953
0.00619619
0.00619137
0.00619804
0.00619449
0.0062009
0.00620193
0.00619911
0.00620384
0.00621056
0.00621009
0.00621795
0.00622751
0.00623825
0.00626932
0.00629293
0.00627824
0.00538354
0.00463715
0.00440529
0.00391546
0.00301157
0.00220322
0.00167763
0.00136887
0.0011883
0.00109983
0.00103735
0.000895991
0.000725652
0.00055367
0.000483423
0.000459229
0.000342237
0.000245431
0.000325775
0.000365836
0.000207195
0.00613712
0.00618146
0.00614063
0.00619654
0.00618724
0.0061855
0.00619724
0.00619732
0.00620631
0.00619056
0.00619679
0.00619649
0.00619582
0.0062058
0.00619355
0.00619974
0.00620261
0.00619948
0.00620252
0.0062089
0.0062104
0.00622046
0.00622894
0.00623865
0.00627071
0.00629348
0.00628122
0.00551649
0.00476286
0.00448542
0.00385932
0.00290807
0.00212667
0.00163402
0.00133847
0.00117519
0.00110215
0.00104646
0.000899902
0.000723572
0.000544506
0.000477715
0.000451478
0.000336743
0.00024321
0.000323396
0.000352542
0.000194506
0.00613587
0.00616809
0.00616319
0.00618864
0.0061752
0.00617907
0.00618724
0.00619653
0.00619618
0.00619431
0.00618709
0.00619283
0.00619399
0.00620735
0.00620047
0.00619949
0.00620113
0.00620189
0.00620045
0.00620792
0.00620833
0.00622106
0.00622806
0.00623986
0.00627401
0.00629299
0.00628125
0.00559231
0.00484083
0.00451104
0.00376891
0.00280146
0.00205343
0.00159179
0.00131615
0.00116309
0.00110121
0.00105845
0.00090715
0.000716473
0.000536353
0.000471636
0.000445427
0.00033572
0.000240717
0.000322321
0.000332541
0.000183206
0.00610746
0.00617195
0.00616493
0.00617133
0.00618017
0.00618522
0.0061846
0.00620348
0.00619593
0.00618838
0.00619214
0.00619967
0.00619526
0.00620804
0.00620265
0.00619895
0.00620088
0.00619756
0.00620072
0.00620806
0.00621002
0.00622057
0.0062257
0.00623862
0.00627467
0.00630005
0.00627753
0.00564075
0.00487009
0.00447745
0.00365313
0.00269031
0.00198379
0.00154737
0.001289
0.00114879
0.00109576
0.00106525
0.000913443
0.000708374
0.000527932
0.000466428
0.000436004
0.000335811
0.000242961
0.000323688
0.000307391
0.000172067
0.00614404
0.00619021
0.00616639
0.0061963
0.00615169
0.00617755
0.00618867
0.00621393
0.0061957
0.00617764
0.00619534
0.00620323
0.00620514
0.00620327
0.00620325
0.00620294
0.00620233
0.00619632
0.0062082
0.0062092
0.00621346
0.00622306
0.00622665
0.00624082
0.00627681
0.00630376
0.00628082
0.00565244
0.00484972
0.00439339
0.0035191
0.00257823
0.00191356
0.00150538
0.00126059
0.00112764
0.00108614
0.00106099
0.000918106
0.000698113
0.00051943
0.000459916
0.000430132
0.000339401
0.000246383
0.000328792
0.000290566
0.00016277
0.00610608
0.0062007
0.00618375
0.00617827
0.0061687
0.00618029
0.00618142
0.00620733
0.00619281
0.00617891
0.00620668
0.00620554
0.00620022
0.00619611
0.00620764
0.00620252
0.00620815
0.00619441
0.00620249
0.00620839
0.00621518
0.0062208
0.00622456
0.0062424
0.00627692
0.00630468
0.006283
0.00562739
0.00479115
0.00426142
0.00337284
0.00246716
0.00184216
0.0014605
0.00122893
0.00110361
0.00107119
0.00105805
0.000915371
0.000690171
0.000510337
0.000451672
0.000425472
0.000339812
0.000248516
0.000334904
0.000274066
0.000155319
0.00614356
0.00619283
0.00615988
0.00616902
0.00613952
0.00616725
0.00618269
0.00621285
0.00618801
0.00618532
0.00619714
0.00620616
0.00619401
0.00619157
0.00620138
0.00621023
0.00620456
0.00619979
0.00620223
0.00620544
0.00621133
0.00621664
0.00622526
0.00624128
0.00627872
0.00630742
0.00627975
0.00556697
0.00469109
0.00409609
0.00321445
0.00235828
0.00176745
0.00141437
0.00119601
0.00107458
0.00104745
0.00104447
0.000915541
0.000683027
0.000501598
0.000445754
0.000424226
0.000347848
0.000254123
0.000343496
0.000254971
0.000144855
0.00614538
0.00620425
0.006161
0.00619774
0.0061525
0.00615011
0.0061876
0.00621409
0.00618127
0.0061757
0.00619149
0.0062059
0.00618945
0.00619393
0.00620195
0.0062013
0.00620356
0.00619447
0.00619674
0.00620552
0.00620938
0.00621144
0.00622655
0.00624371
0.00627945
0.00630475
0.00628502
0.00549513
0.00456765
0.00391074
0.00304663
0.00224806
0.0016978
0.001363
0.00115936
0.0010465
0.00101898
0.00103196
0.000911104
0.000675922
0.000492655
0.000441029
0.00042557
0.000352234
0.000262373
0.000353139
0.000237785
0.000133083
0.00611581
0.00622978
0.00611784
0.00618018
0.00616278
0.00615704
0.00617115
0.00620719
0.00617716
0.00618018
0.00619116
0.00620144
0.00619466
0.00619233
0.00619858
0.0061999
0.00619635
0.00620309
0.00620132
0.00620271
0.00621385
0.00621288
0.00622526
0.00624417
0.00627968
0.00630641
0.00628432
0.00539182
0.00442234
0.00371409
0.00287931
0.00214286
0.00162555
0.00131356
0.00111799
0.00101101
0.000985481
0.00100985
0.000903186
0.000670249
0.000484442
0.000436099
0.000427763
0.000366615
0.000270078
0.00036227
0.000220484
0.000129368
0.006143
0.00618839
0.0061548
0.00614935
0.00618955
0.00615321
0.00616953
0.00621461
0.00616677
0.00618274
0.0061912
0.00619238
0.0061958
0.00619517
0.00620465
0.00619128
0.00618673
0.00619911
0.00619752
0.00620484
0.00620913
0.00621652
0.00622452
0.00624757
0.00627788
0.00630247
0.00629704
0.00527705
0.00426019
0.00351412
0.00271489
0.00203727
0.00156045
0.00126113
0.00107897
0.000970041
0.000945569
0.000974856
0.00088922
0.000662047
0.000476867
0.000429948
0.000437258
0.000383388
0.000281676
0.000372496
0.000202246
0.000125801
0.00618071
0.00616063
0.00616133
0.00615608
0.00620749
0.00615924
0.00618409
0.00621589
0.00617612
0.00618892
0.00619133
0.00619832
0.00620327
0.00620511
0.00620636
0.006201
0.00618822
0.00620074
0.00620237
0.00620202
0.00620923
0.00621791
0.0062283
0.00624463
0.00627681
0.00630226
0.00630054
0.00515028
0.00408884
0.00331804
0.00256423
0.00193317
0.00149681
0.00120713
0.00103376
0.000932145
0.000901933
0.00093656
0.000874525
0.000650573
0.000471419
0.000430749
0.000453271
0.000402394
0.000293693
0.000391913
0.000192411
0.000122222
0.00611745
0.00616972
0.00616217
0.00614864
0.00618686
0.00615436
0.00618832
0.00622363
0.00619037
0.00618581
0.00619271
0.00620434
0.00619694
0.00619593
0.00619453
0.00620175
0.0061907
0.00619622
0.00619927
0.00620025
0.00620835
0.00621865
0.0062283
0.00624641
0.0062773
0.00630323
0.00629927
0.00501456
0.0039108
0.00312857
0.00242105
0.00183806
0.00143544
0.00115351
0.000986066
0.000889098
0.000853428
0.000886914
0.000853026
0.000644214
0.000462914
0.000429105
0.000474745
0.000434515
0.000312918
0.000412123
0.000183417
0.000110678
0.0060615
0.00617786
0.006182
0.00615303
0.00620605
0.00616599
0.00616955
0.00620867
0.00619719
0.00619334
0.00619563
0.00620981
0.00619946
0.00620514
0.00618963
0.00620184
0.00619266
0.00620509
0.00619724
0.0062018
0.00620792
0.00621954
0.00623135
0.00624557
0.00627705
0.00630249
0.00630066
0.00486244
0.00373444
0.0029484
0.00228854
0.00174644
0.00137247
0.00110677
0.00094315
0.00084273
0.000807718
0.000831642
0.00082406
0.000633295
0.00045424
0.00043024
0.00049711
0.000474253
0.000336331
0.000428246
0.000174901
0.000108339
0.00609471
0.00617008
0.00620057
0.0061497
0.00621563
0.00615608
0.00615961
0.00619651
0.00618371
0.00618769
0.00619262
0.00620389
0.00619654
0.00619866
0.00619868
0.00619569
0.00619799
0.00620073
0.00619691
0.0062028
0.0062094
0.0062191
0.00622905
0.00624437
0.00627884
0.00629855
0.00629963
0.00470614
0.00355759
0.00278064
0.00216447
0.00165816
0.00130534
0.00105911
0.000901706
0.000802344
0.0007628
0.000780787
0.0007831
0.000623259
0.000452223
0.000429379
0.000531475
0.000526792
0.000369295
0.000428693
0.000162523
0.000105409
0.00613186
0.0061778
0.00616324
0.00613942
0.00619257
0.00615552
0.0061744
0.00621047
0.0061918
0.00618804
0.00618201
0.00621013
0.00619183
0.00619711
0.00620228
0.0061968
0.00619708
0.00619551
0.00620202
0.00619994
0.00620934
0.00621591
0.00623057
0.00624553
0.00628359
0.00629978
0.00629824
0.00453686
0.00338841
0.00262422
0.00204671
0.00157174
0.00124607
0.00102123
0.000860756
0.000760633
0.000716409
0.000725917
0.000735989
0.000611515
0.000449976
0.000440921
0.000575521
0.000594578
0.000412767
0.000416646
0.000150905
9.46581e-05
0.00615598
0.00613324
0.00619741
0.00614168
0.00619781
0.00614978
0.00616826
0.00620118
0.00619401
0.00618458
0.0061828
0.00620151
0.00618534
0.00619145
0.00620127
0.00619722
0.00619657
0.00619749
0.0062051
0.00619925
0.00621283
0.00621741
0.00622953
0.00624958
0.00629072
0.00630097
0.00629085
0.00436542
0.00322558
0.00248128
0.00193459
0.00149246
0.00118721
0.000980524
0.000822741
0.000719496
0.000672226
0.00067358
0.000692069
0.000598854
0.000454399
0.000458197
0.000632729
0.000684711
0.000470169
0.00038303
0.00013937
9.24376e-05
0.00612881
0.00616611
0.00616879
0.00613645
0.006213
0.00613293
0.00618213
0.00619609
0.006188
0.00618429
0.00618068
0.00619157
0.00619586
0.00619348
0.00620169
0.00619674
0.00620411
0.00619675
0.00620509
0.00619504
0.00621162
0.0062196
0.00623171
0.00624991
0.00629592
0.00630042
0.00616211
0.00419826
0.0030701
0.00235141
0.00183089
0.00141815
0.00113333
0.000938819
0.000782157
0.000686271
0.000627218
0.000621718
0.000640464
0.000581539
0.000455959
0.000480998
0.000708389
0.000795881
0.000528329
0.000337851
0.000135009
8.87369e-05
0.00614129
0.00617096
0.00619471
0.00614638
0.00617687
0.00615317
0.00617335
0.00618607
0.00619222
0.00617874
0.00617866
0.00618498
0.00618485
0.00619996
0.00619735
0.00619726
0.00619441
0.00619975
0.0062073
0.0062012
0.00620746
0.00621968
0.0062323
0.00625208
0.00629976
0.0063037
0.00596904
0.00402835
0.00292308
0.00223153
0.00173619
0.00134913
0.00108218
0.000894953
0.000748609
0.000648597
0.000589954
0.000578551
0.000589984
0.000554538
0.000463741
0.000502001
0.000794357
0.000925416
0.000561007
0.000290941
0.000123878
8.56977e-05
0.00615579
0.00613628
0.00617724
0.00616545
0.00616245
0.00615032
0.00617404
0.00617117
0.0061911
0.00617875
0.00617903
0.00618773
0.0061935
0.00620036
0.00620434
0.00619857
0.00619378
0.00620921
0.00620273
0.00620035
0.00621004
0.00622098
0.00622977
0.0062508
0.00630196
0.00630467
0.00577142
0.00386499
0.00278281
0.00211708
0.0016469
0.00129048
0.00103401
0.000853653
0.00071719
0.000620236
0.000555016
0.000534531
0.000543067
0.000526945
0.000464953
0.000528531
0.000870518
0.00102327
0.000535497
0.000251858
0.00011953
8.45054e-05
0.00611065
0.00616021
0.00617733
0.0061697
0.00616203
0.00619224
0.00617599
0.00617503
0.00620058
0.00617888
0.00618144
0.00619123
0.00619867
0.00619525
0.00619997
0.00619823
0.00619788
0.00620722
0.00620222
0.00620079
0.00621004
0.00622463
0.00623262
0.00625432
0.00630098
0.00630983
0.00557257
0.0037041
0.00265059
0.00200886
0.00156677
0.0012367
0.000993536
0.000817707
0.00068706
0.000592874
0.000526397
0.000495361
0.000496283
0.000491964
0.000461213
0.00054428
0.00089626
0.000988414
0.000465738
0.000216414
0.000115135
8.22422e-05
0.00612511
0.00617203
0.00618089
0.00614262
0.00616122
0.00618946
0.00616689
0.00617489
0.00618928
0.00617244
0.0061881
0.00620013
0.00618806
0.00620056
0.00620015
0.00619849
0.00619941
0.00620619
0.00620189
0.00620103
0.00621362
0.00622352
0.0062342
0.00625189
0.0062979
0.00631021
0.00535553
0.00354444
0.00252427
0.00191006
0.00149295
0.00118413
0.000951607
0.00078224
0.000658066
0.000563766
0.000498544
0.000458145
0.000454621
0.000452338
0.000444837
0.000539549
0.000808391
0.000780446
0.000400191
0.00020395
0.000113616
8.07037e-05
0.00608996
0.0061744
0.00615109
0.00614105
0.00617948
0.00617144
0.00617689
0.0061663
0.00619201
0.0061699
0.00618777
0.00620814
0.00618334
0.00620525
0.00620034
0.00619404
0.00619907
0.0062074
0.00620206
0.00620117
0.00621074
0.00622219
0.00623536
0.00625291
0.00629653
0.00631213
0.00516003
0.00339698
0.00241045
0.00182202
0.0014241
0.00113078
0.000911624
0.000749542
0.000630331
0.000541706
0.000475736
0.000432889
0.000414568
0.000419844
0.000426145
0.000512318
0.000659427
0.000557541
0.00034808
0.000197324
0.000117001
8.00676e-05
0.00610296
0.00619355
0.00617686
0.0061521
0.00615317
0.00616852
0.00618561
0.00618847
0.00617444
0.00616821
0.00619804
0.00621039
0.00618853
0.00619713
0.00620038
0.00619679
0.00619909
0.00620029
0.00620236
0.00620452
0.00621749
0.0062259
0.00623742
0.00625218
0.0062953
0.00631562
0.00496286
0.0032528
0.00229958
0.00173817
0.00136243
0.00108343
0.000875681
0.00071879
0.000607142
0.000518545
0.000454711
0.000407637
0.0003863
0.000384599
0.000400965
0.000476194
0.000549322
0.00042494
0.000304454
0.000197535
0.000119146
7.93574e-05
0.00608016
0.0062265
0.00621818
0.00614656
0.00613792
0.0061813
0.00619154
0.00616954
0.00617033
0.0061605
0.00620533
0.00621631
0.00619417
0.00620404
0.00620206
0.00620313
0.0061977
0.00619231
0.00620529
0.00620444
0.00621586
0.00622321
0.00623497
0.00625292
0.00629494
0.00631039
0.00477987
0.00311366
0.00219964
0.00166067
0.00130384
0.00103953
0.000839267
0.00068951
0.000582364
0.000498711