/*--------------------------------*- C++ -*----------------------------------*\
  =========                 |
  \\      /  F ield         | OpenFOAM: The Open Source CFD Toolbox
   \\    /   O peration     | Website:  https://openfoam.org
    \\  /    A nd           | Version:  10
     \\/     M anipulation  |
\*---------------------------------------------------------------------------*/
FoamFile
{
    format      ascii;
    class       volScalarField;
    location    "10";
    object      omega;
}
// * * * * * * * * * * * * * * * * * * * * * * * * * * * * * * * * * * * * * //

dimensions      [0 0 -1 0 0 0 0];

internalField   nonuniform List<scalar> 
38016
(
15.4079
15.5292
15.6228
15.6753
15.7542
15.8438
15.869
15.9128
15.944
15.9738
15.9922
16.0071
16.023
16.0412
16.0477
16.0603
16.0688
16.0731
16.082
16.0891
16.0955
16.1093
16.1294
16.156
16.1881
16.2482
16.3666
16.5073
16.5951
16.6779
16.7528
16.8132
16.7949
16.7834
16.7488
16.8663
16.9446
17.1873
17.5481
17.9871
18.4684
18.7892
19.1001
19.6144
20.6465
20.9109
22.3661
23.965
15.3982
15.5627
15.628
15.6782
15.7533
15.8567
15.8834
15.9179
15.954
15.976
15.9912
16.0072
16.0224
16.0414
16.0471
16.0632
16.0684
16.0752
16.0833
16.089
16.0962
16.1089
16.1278
16.1636
16.1841
16.2496
16.3664
16.5091
16.5966
16.6825
16.7412
16.7411
16.7808
16.7939
16.7291
16.8404
16.923
17.0584
17.5284
18.006
18.5964
18.736
19.6424
19.7242
21.4772
21.5303
22.2956
25.1126
15.4385
15.5225
15.647
15.6787
15.7442
15.834
15.8761
15.913
15.9462
15.9751
15.9914
16.005
16.0216
16.0416
16.0463
16.0597
16.0692
16.0732
16.081
16.0892
16.0954
16.1093
16.1286
16.1596
16.1908
16.257
16.3662
16.5129
16.575
16.6851
16.7387
16.7644
16.769
16.7896
16.6847
16.8049
16.8878
17.0123
17.5361
17.8557
18.643
19.2373
19.4019
20.9724
22.4732
22.8247
23.3696
23.7361
15.4108
15.5402
15.6083
15.6673
15.7415
15.8299
15.8726
15.8997
15.9449
15.976
15.9948
16.0046
16.0197
16.0399
16.045
16.0612
16.0665
16.0713
16.0802
16.0883
16.0955
16.1096
16.1265
16.1633
16.1911
16.2615
16.3557
16.5289
16.6213
16.6879
16.759
16.7857
16.7376
16.6998
16.6649
16.6667
16.7415
16.8859
17.5019
18.1182
18.7092
19.402
20.3327
21.516
21.9336
23.1218
23.8876
23.6194
15.415
15.4843
15.6046
15.69
15.7362
15.818
15.8611
15.8973
15.957
15.9816
15.9929
16.003
16.0232
16.0348
16.0448
16.0567
16.0657
16.0722
16.0812
16.0864
16.0953
16.1097
16.1274
16.1677
16.1976
16.2624
16.3817
16.5316
16.6271
16.6832
16.6832
16.732
16.7312
16.7171
16.6231
16.6242
16.7104
16.839
17.5118
18.1074
18.6801
19.3787
20.8671
20.8449
22.601
22.0397
23.1816
23.2393
15.4288
15.507
15.5915
15.6657
15.7374
15.8112
15.8632
15.8928
15.955
15.97
15.9866
16.0033
16.018
16.0338
16.043
16.0545
16.0662
16.0696
16.0791
16.0863
16.0954
16.1097
16.1284
16.1651
16.2051
16.2751
16.3767
16.544
16.6451
16.6761
16.6916
16.7901
16.7099
16.6366
16.5906
16.5745
16.6354
16.801
17.3418
18.0864
18.4515
19.7146
20.8505
20.9962
22.4802
21.9257
22.127
22.4679
15.4536
15.47
15.5888
15.6857
15.7361
15.8141
15.8492
15.8918
15.9549
15.9607
15.9816
16.0013
16.0191
16.0317
16.0427
16.0553
16.0612
16.0696
16.0792
16.0873
16.0956
16.1097
16.127
16.1708
16.2078
16.2901
16.4108
16.5453
16.6475
16.6594
16.6834
16.7045
16.6884
16.6196
16.5634
16.5269
16.5859
16.8166
17.4049
18.0329
18.7351
19.6479
20.988
20.9867
22.3141
21.403
21.8037
22.0937
15.4327
15.5021
15.5855
15.6555
15.7341
15.787
15.863
15.8918
15.9466
15.9648
15.981
16.0069
16.0138
16.0314
16.0414
16.0524
16.0606
16.0687
16.0799
16.085
16.0945
16.1096
16.128
16.1717
16.2098
16.2944
16.413
16.5466
16.6402
16.6116
16.6751
16.7084
16.6506
16.5506
16.4664
16.479
16.5453
16.9028
17.3912
17.8047
18.7443
19.2352
20.3963
20.8503
22.0651
21.315
21.4212
21.7948
15.3958
15.4691
15.6007
15.6626
15.7143
15.788
15.8485
15.8864
15.9545
15.9509
15.9801
16
16.0191
16.0303
16.0422
16.0554
16.06
16.0684
16.0788
16.083
16.0946
16.1094
16.129
16.1691
16.2137
16.291
16.4198
16.5114
16.6307
16.6594
16.6079
16.6992
16.6323
16.5049
16.439
16.4276
16.5087
16.7839
17.1807
18.0125
18.658
19.6432
20.8477
21.2178
22.0757
21.054
21.273
21.6346
15.3795
15.4882
15.5665
15.627
15.7121
15.7919
15.8434
15.8845
15.9366
15.9506
15.9792
16.0033
16.014
16.0273
16.039
16.0531
16.0598
16.0694
16.0772
16.0828
16.0933
16.1092
16.13
16.176
16.2209
16.3071
16.4005
16.54
16.6171
16.6509
16.6298
16.6277
16.5891
16.4626
16.4031
16.3826
16.4742
16.8901
17.2258
17.6773
18.6701
19.5424
20.7591
21.1664
21.9252
21.4659
20.5629
22.1772
15.3878
15.4347
15.561
15.6263
15.7032
15.773
15.844
15.8929
15.9281
15.9494
15.9715
16.0022
16.0187
16.0259
16.042
16.0509
16.0561
16.0648
16.0764
16.084
16.0933
16.1088
16.1313
16.1793
16.2234
16.3046
16.4212
16.5401
16.5852
16.6428
16.6165
16.6132
16.5348
16.4253
16.368
16.3459
16.4384
16.7255
17.1868
17.6856
18.2688
19.36
19.9961
20.2848
21.0897
21.4642
20.3896
22.064
15.3828
15.4276
15.5495
15.6483
15.7021
15.7716
15.8525
15.8731
15.9312
15.9438
15.973
15.9955
16.0094
16.0245
16.0348
16.0459
16.0555
16.0639
16.0743
16.0823
16.092
16.1086
16.1327
16.1776
16.2217
16.3179
16.4191
16.4972
16.6238
16.6313
16.5948
16.5989
16.5136
16.4017
16.337
16.3193
16.406
16.738
17.0786
17.6277
18.5454
19.3419
20.2171
20.4238
21.8024
20.4832
20.2172
21.778
15.3873
15.4476
15.5727
15.6229
15.7186
15.7667
15.8276
15.8845
15.9151
15.9434
15.9645
15.9985
16.0031
16.0255
16.0353
16.0466
16.0548
16.0617
16.0728
16.0808
16.0922
16.1077
16.1339
16.1766
16.2332
16.3177
16.4176
16.5024
16.6142
16.6231
16.5906
16.5883
16.4788
16.3771
16.3099
16.2918
16.3856
16.6126
16.9518
17.6644
18.4964
19.2332
20.3457
20.3334
21.6702
20.6702
20.3228
21.9013
15.3842
15.3976
15.544
15.6269
15.6885
15.7652
15.8227
15.8772
15.8977
15.9495
15.9638
15.9877
16.0038
16.0175
16.0263
16.0429
16.0552
16.06
16.0697
16.0781
16.0908
16.107
16.1314
16.1734
16.2268
16.3143
16.3918
16.4904
16.608
16.6117
16.5687
16.5603
16.451
16.3581
16.2828
16.2813
16.3823
16.656
16.9219
17.6251
18.0563
19.2344
20.3549
20.5073
21.5869
20.5815
20.8003
20.8791
15.3995
15.4101
15.5756
15.6222
15.6886
15.7775
15.8299
15.8701
15.8913
15.9345
15.97
15.9863
16.006
16.0161
16.0238
16.0438
16.0512
16.0597
16.0698
16.0776
16.0907
16.1061
16.1296
16.1706
16.2319
16.3183
16.4067
16.4855
16.5976
16.6021
16.5686
16.5524
16.4433
16.3414
16.269
16.2769
16.4146
16.6014
16.8707
17.2918
18.1941
19.1996
19.6772
20.4236
20.7777
19.8703
20.7598
21.3932
15.3634
15.3819
15.5473
15.6501
15.6881
15.7511
15.8001
15.8553
15.8913
15.9238
15.9582
15.9893
16.0028
16.0155
16.0222
16.0382
16.0509
16.0539
16.0686
16.0777
16.09
16.1049
16.1272
16.171
16.2294
16.3166
16.3919
16.4842
16.5881
16.5599
16.5691
16.5181
16.4355
16.3302
16.2631
16.2806
16.4234
16.7141
16.8731
17.495
18.1596
19.1937
19.7865
19.824
21.2389
20.1078
19.925
21.4867
15.3285
15.364
15.5499
15.6357
15.6885
15.7494
15.7906
15.8529
15.8716
15.9208
15.9588
15.9746
15.9953
16.0153
16.019
16.0407
16.0525
16.0528
16.0685
16.0756
16.0892
16.1036
16.1256
16.1646
16.2258
16.3189
16.4019
16.485
16.5496
16.5657
16.5739
16.5197
16.4252
16.328
16.263
16.2901
16.42
16.5683
16.9889
17.4645
18.0979
18.7134
19.7292
20.1756
21.2705
19.5913
20.2565
20.8478
15.2809
15.3565
15.5521
15.6338
15.7041
15.7637
15.7852
15.846
15.8703
15.9164
15.9649
15.9619
15.9881
16.0097
16.0179
16.0327
16.0459
16.0552
16.0698
16.0747
16.0875
16.1018
16.1227
16.1625
16.2243
16.3143
16.3862
16.4573
16.5428
16.5618
16.5672
16.5098
16.4216
16.3289
16.2662
16.2777
16.4153
16.6804
17.0631
17.4238
18.1122
18.9905
19.8225
20.5416
20.9747
20.1301
20.1823
21.6696
15.2263
15.3198
15.531
15.6659
15.6664
15.7376
15.7765
15.8418
15.8692
15.9147
15.9532
15.9594
15.9905
16.0077
16.0176
16.0258
16.0449
16.0493
16.0656
16.0751
16.0864
16.1002
16.121
16.1585
16.2184
16.3024
16.3722
16.4618
16.529
16.5586
16.5735
16.506
16.4222
16.3301
16.2736
16.2937
16.3573
16.6514
17.0669
17.3973
17.7423
18.6668
20.0786
20.9558
21.5686
20.0894
20.0746
21.8044
15.2302
15.3216
15.5021
15.653
15.6377
15.7141
15.7698
15.8379
15.8776
15.9125
15.9458
15.9565
15.9859
16.0126
16.0183
16.021
16.0464
16.0447
16.0617
16.0696
16.0844
16.0984
16.118
16.1545
16.2158
16.3026
16.3615
16.4546
16.5107
16.5504
16.5489
16.4996
16.4194
16.3364
16.286
16.3092
16.4029
16.496
16.8437
17.3377
17.974
19.1513
20.1102
21.0933
22.434
19.8098
20.574
21.8096
15.1843
15.3222
15.4661
15.6301
15.6237
15.7188
15.7668
15.8307
15.8625
15.9097
15.9358
15.9535
15.9836
16.0052
16.0157
16.0187
16.0359
16.0393
16.0571
16.0644
16.0815
16.0957
16.1154
16.1504
16.2114
16.2903
16.3563
16.4447
16.5104
16.5459
16.5481
16.4914
16.4242
16.3433
16.307
16.3298
16.43
16.561
16.998
17.1807
17.7063
19.137
19.5639
20.9011
22.7513
20.1974
20.6302
22.3533
15.1854
15.3298
15.468
15.6457
15.618
15.6914
15.7627
15.8251
15.8734
15.9017
15.9393
15.9523
15.9789
16.0039
16.0123
16.0152
16.0283
16.0411
16.0566
16.0604
16.0781
16.0934
16.1124
16.1462
16.2066
16.2845
16.343
16.4451
16.5001
16.5264
16.5407
16.4912
16.444
16.3612
16.3416
16.3568
16.4772
16.5754
17.0054
17.3824
18.0804
19.0022
19.885
22.009
22.6889
20.6572
20.7685
23.7103
15.1733
15.3125
15.498
15.593
15.6106
15.6867
15.7585
15.8264
15.8564
15.8971
15.9283
15.9502
15.9714
16.0064
16.0044
16.0135
16.0267
16.0316
16.0495
16.061
16.0729
16.0887
16.1104
16.1438
16.202
16.2817
16.3402
16.4278
16.4969
16.5277
16.5299
16.4983
16.4545
16.4006
16.3852
16.391
16.5199
16.6307
16.9813
17.3691
18.0948
19.2604
20.2651
23.0005
23.7717
21.3823
21.1166
25.4178
15.1713
15.2766
15.4606
15.559
15.5945
15.685
15.7513
15.7957
15.8531
15.8933
15.9199
15.952
15.9721
15.9966
15.9946
16.0135
16.026
16.0298
16.0447
16.0585
16.0693
16.0842
16.1075
16.1403
16.1945
16.2723
16.3375
16.4261
16.4941
16.5234
16.5271
16.5
16.4685
16.4432
16.4406
16.4332
16.5286
16.6606
17.0006
17.341
17.7471
19.288
19.8076
24.1117
24.8835
21.6565
21.2027
26.9489
15.2107
15.2807
15.4212
15.5509
15.5884
15.6835
15.7506
15.7911
15.8522
15.8844
15.9181
15.9444
15.9601
15.9861
15.9893
16.0109
16.0251
16.0274
16.0413
16.0569
16.0657
16.0826
16.105
16.1368
16.191
16.2696
16.3404
16.4223
16.4809
16.5242
16.523
16.5055
16.5105
16.4783
16.5069
16.485
16.5857
16.7532
16.9991
17.1322
18.0101
19.0089
20.403
25.038
26.277
21.6806
20.8242
28.697
15.1739
15.3078
15.3761
15.5282
15.5768
15.6612
15.7568
15.7861
15.853
15.8666
15.9212
15.9341
15.9566
15.9823
15.9871
16.007
16.0198
16.0232
16.0394
16.0493
16.0601
16.0822
16.1021
16.1331
16.1851
16.2648
16.3399
16.4195
16.4758
16.5226
16.5214
16.5063
16.5595
16.5208
16.574
16.5503
16.6212
16.8699
16.8371
17.2822
17.6747
19.5614
20.8719
25.738
27.4298
23.0346
21.6721
30.7786
15.1406
15.2264
15.3887
15.514
15.5618
15.6481
15.7452
15.7849
15.8531
15.8619
15.9116
15.9304
15.9516
15.9827
15.9892
16.0026
16.0166
16.0204
16.0294
16.0437
16.0546
16.0779
16.0981
16.1293
16.1801
16.2608
16.3377
16.4112
16.4757
16.5281
16.5202
16.5332
16.598
16.568
16.6514
16.6184
16.6803
16.8495
17.0238
17.4655
17.9409
19.9066
21.4323
26.5046
28.1963
24.1631
22.41
33.1332
15.0886
15.1505
15.3581
15.5187
15.5558
15.6233
15.7129
15.7561
15.8298
15.8544
15.9065
15.9286
15.9499
15.9652
15.9812
15.9987
16.0074
16.02
16.0273
16.0406
16.0542
16.0744
16.0942
16.1241
16.1737
16.2569
16.3379
16.4038
16.4688
16.53
16.5289
16.5484
16.6352
16.6164
16.7513
16.7069
16.7408
16.8075
16.9941
17.5356
18.0703
20.3927
22.193
27.6157
28.3326
25.4295
23.2868
34.4383
15.0893
15.1469
15.3592
15.4383
15.5412
15.634
15.6871
15.749
15.8244
15.8648
15.8888
15.9323
15.95
15.9546
15.9805
15.9952
16.0039
16.0096
16.0235
16.0372
16.0566
16.0698
16.0893
16.1198
16.169
16.2529
16.3407
16.3954
16.47
16.5272
16.534
16.6028
16.682
16.668
16.8595
16.7995
16.8245
16.778
16.9949
17.5491
18.3516
21.0646
23.0494
29.0978
27.6598
26.4137
24.4248
35.2905
15.1344
15.1426
15.3223
15.389
15.5355
15.6043
15.6851
15.7336
15.8271
15.8446
15.8753
15.9131
15.941
15.9538
15.9737
15.9905
16.0033
16.0076
16.0194
16.0283
16.0513
16.0633
16.0854
16.1169
16.164
16.2502
16.3364
16.3949
16.4704
16.5348
16.5517
16.6604
16.7048
16.7573
16.9643
16.9126
16.9564
16.8352
16.9643
17.3718
18.6985
22.0512
24.139
30.5812
29.0708
27.2477
25.7667
40.3996
15.065
15.1379
15.3326
15.3778
15.5406
15.6015
15.657
15.7257
15.7885
15.8474
15.8619
15.8975
15.9369
15.9594
15.9794
15.9897
15.9904
16.0086
16.0152
16.029
16.0451
16.0563
16.0804
16.1122
16.1605
16.2466
16.3385
16.3943
16.4702
16.539
16.5739
16.7195
16.7167
16.8245
17.0544
17.032
17.1142
16.8806
16.7916
17.6732
19.1238
23.0242
25.4724
31.1355
30.1319
28.2295
27.5242
45.1341
15.011
15.0988
15.2813
15.3704
15.5182
15.5941
15.6544
15.7142
15.7623
15.8238
15.8581
15.8846
15.9386
15.9476
15.9672
15.9853
15.9877
16.0017
16.012
16.0201
16.0386
16.0573
16.0725
16.1074
16.1573
16.2461
16.3399
16.3948
16.4744
16.5504
16.5914
16.7773
16.7991
16.9173
17.0839
17.1919
17.0451
16.9487
16.9273
17.4903
19.5818
23.8465
27.271
32.9154
31.6346
29.6198
29.8431
52.4091
15.0114
15.1099
15.3148
15.3499
15.491
15.5929
15.6429
15.7124
15.7595
15.8203
15.8521
15.8793
15.9142
15.9355
15.9556
15.9776
15.9832
15.9944
16.0081
16.0109
16.0318
16.0468
16.0652
16.102
16.1543
16.2455
16.3377
16.4015
16.4755
16.5593
16.6127
16.8144
16.873
17.0025
17.0575
17.3637
17.2823
17.018
17.025
17.8348
20.3248
24.7694
29.3502
33.7198
33.7822
31.0426
33.0628
61.6379
15.0006
15.0688
15.246
15.3444
15.4871
15.6115
15.6358
15.7233
15.7539
15.8155
15.8592
15.8817
15.8989
15.92
15.9355
15.9655
15.9889
15.9821
16.0024
16.0074
16.0279
16.0412
16.0636
16.0974
16.1515
16.2448
16.3374
16.3997
16.4771
16.5734
16.6361
16.8696
16.9694
17.1203
17.2064
17.5294
17.3587
17.145
17.1776
18.2115
21.2388
25.5963
31.6443
36.0433
36.5814
33.2041
37.2462
73.9964
15.053
15.0618
15.2554
15.3611
15.4762
15.5903
15.6454
15.6922
15.7531
15.815
15.8447
15.8608
15.8942
15.9114
15.9163
15.9527
15.9751
15.9764
15.9931
16.003
16.0187
16.039
16.0648
16.0986
16.1515
16.2475
16.337
16.4027
16.4798
16.5833
16.6734
16.8983
17.0732
17.2084
17.3525
17.7365
17.6109
17.3388
17.3131
18.6708
22.162
26.9104
33.87
37.8279
40.3988
35.8692
42.4796
90.1314
14.9897
15.0126
15.1734
15.2942
15.511
15.5699
15.598
15.6621
15.7604
15.825
15.8357
15.8591
15.8767
15.9092
15.9119
15.9405
15.9631
15.9729
15.9801
15.9975
16.007
16.028
16.0585
16.0929
16.1487
16.2486
16.3378
16.4114
16.4838
16.5919
16.7063
16.9226
17.2322
17.3614
17.5225
17.8618
17.8393
17.5926
17.4731
19.1552
23.2385
28.5304
35.5789
39.6112
44.2558
39.8272
47.7039
114.067
15.0174
14.965
15.1631
15.2895
15.4848
15.5508
15.5901
15.6688
15.7562
15.7941
15.8152
15.838
15.8719
15.9107
15.9047
15.9397
15.9518
15.974
15.9819
15.9938
16.0034
16.0264
16.0609
16.0882
16.1514
16.25
16.3386
16.4152
16.4954
16.6072
16.7608
17.0204
17.3543
17.5009
17.6642
17.9198
18.1351
17.6414
17.5837
19.7068
23.9634
29.8485
36.9577
40.2997
45.1827
43.4505
52.3578
139.213
14.9256
14.954
15.1714
15.3074
15.5118
15.5223
15.5785
15.6373
15.7393
15.7693
15.8103
15.8421
15.8655
15.9051
15.9024
15.9253
15.9493
15.9602
15.9695
15.9941
16.0015
16.0257
16.0548
16.092
16.1492
16.2513
16.3386
16.4165
16.5056
16.6394
16.8132
17.1289
17.5541
17.6804
17.8643
17.8866
18.422
17.5677
17.7011
19.7726
24.6821
30.905
38.8951
42.4373
44.1639
45.1315
60.9827
148.707
14.8989
14.921
15.1296
15.2668
15.4738
15.541
15.574
15.6319
15.721
15.7802
15.8009
15.8308
15.8679
15.8969
15.8992
15.9307
15.9389
15.9597
15.9698
15.9819
16.0033
16.0299
16.0483
16.0878
16.152
16.2548
16.343
16.424
16.5231
16.6866
16.8862
17.2331
17.8116
17.8797
18.1029
18.2138
18.6807
17.864
17.8537
19.6677
25.6362
31.5959
41.4549
43.8555
48.596
45.8614
74.4733
152.08
14.9553
14.9045
15.1593
15.211
15.4366
15.5132
15.5683
15.6242
15.7255
15.7598
15.8003
15.8271
15.8478
15.8852
15.9013
15.9198
15.9379
15.9434
15.9614
15.985
15.9912
16.0193
16.0465
16.0855
16.1502
16.2556
16.3463
16.4301
16.5624
16.7362
16.9526
17.3465
18.0352
18.081
18.3988
18.5761
18.7945
18.1653
18.0743
19.9638
26.7754
33.7658
42.9869
45.0262
51.6716
44.5207
82.3732
176.282
14.8803
14.8607
15.0486
15.2193
15.3781
15.5009
15.5718
15.6308
15.742
15.7467
15.8129
15.8213
15.8432
15.8756
15.8826
15.9276
15.9446
15.938
15.9625
15.9789
15.9895
16.0123
16.0485
16.0818
16.1542
16.257
16.3534
16.4421
16.6033
16.7888
17.015
17.4543
18.1223
18.3226
18.7268
18.9661
18.7857
18.4238
18.3527
20.5848
27.3685
35.5547
43.4002
46.4388
50.1952
49.6518
86.0593
178.469
14.818
14.8365
14.9926
15.187
15.3669
15.4718
15.5352
15.5941
15.7063
15.7368
15.7934
15.8115
15.8321
15.8584
15.8832
15.913
15.9354
15.9349
15.9527
15.9714
15.9785
16.0017
16.0387
16.0877
16.1549
16.2601
16.3624
16.4691
16.6476
16.8443
17.0219
17.572
18.174
18.6516
19.1156
19.2827
19.3758
18.783
18.6679
21.3064
28.921
38.6135
45.2859
47.0247
52.5936
53.655
89.371
190.623
14.8046
14.805
14.9816
15.175
15.3869
15.4646
15.53
15.5878
15.6634
15.7088
15.7782
15.7941
15.8254
15.8635
15.8869
15.8968
15.926
15.936
15.9518
15.973
15.9836
16.0001
16.0376
16.0863
16.1564
16.2608
16.3644
16.4999
16.6889
16.8928
17.1307
17.7432
18.3917
18.9995
19.4857
19.8057
19.9153
19.1389
19.0167
22.0576
30.3853
40.7522
46.2275
48.0683
49.1519
54.1874
92.3901
225.002
14.8338
14.8174
14.9177
15.15
15.3049
15.4256
15.5267
15.5776
15.6542
15.6839
15.7507
15.7688
15.816
15.8519
15.8821
15.8902
15.9145
15.9197
15.9555
15.9664
15.9754
15.9998
16.0352
16.086
16.1584
16.2618
16.3699
16.5285
16.7261
16.9571
17.1989
17.9166
18.6138
19.4343
19.9248
20.4209
19.8799
19.6513
19.585
22.8368
30.6081
42.4446
47.155
48.1564
48.5859
54.6351
111.955
266.383
14.7352
14.7338
14.9144
15.1328
15.2383
15.4315
15.5116
15.5917
15.6461
15.6633
15.7484
15.7627
15.808
15.8481
15.8661
15.8905
15.8986
15.9188
15.9456
15.9648
15.9718
15.998
16.0359
16.0902
16.1612
16.2676
16.3754
16.5551
16.7551
17.0482
17.3274
18.1251
19.1419
19.9512
20.538
21.3244
20.7714
20.2213
20.3112
23.7573
30.8935
43.9038
48.3297
48.3769
47.0327
58.3079
128.154
293.832
14.6263
14.7245
14.9458
15.1122
15.2293
15.4246
15.4765
15.5687
15.6364
15.6561
15.743
15.7599
15.8016
15.8388
15.8472
15.87
15.896
15.9224
15.9322
15.9562
15.9721
16.0069
16.0348
16.0874
16.1645
16.271
16.3868
16.5817
16.8008
17.1232
17.4655
18.4054
19.5451
20.5537
21.2055
22.2848
21.5268
20.826
21.08
23.9209
30.8655
43.8754
48.4328
48.0364
44.8302
63.4022
127.084
260.654
14.5371
14.7621
14.8743
15.0828
15.209
15.4285
15.4617
15.5694
15.5996
15.6469
15.7356
15.7559
15.8062
15.8293
15.845
15.8774
15.8991
15.916
15.9332
15.9566
15.9729
16.0024
16.0353
16.0838
16.1672
16.2734
16.4038
16.609
16.8397
17.2429
17.6352
18.6873
20.1811
21.2619
22.0902
23.1807
22.6739
21.4569
21.9084
23.6299
30.853
43.4497
47.8745
47.2296
42.9481
64.1452
129.578
272.534
14.5723
14.6641
14.8762
15.0568
15.204
15.4568
15.4341
15.5477
15.59
15.6366
15.7527
15.763
15.7751
15.8226
15.8368
15.8616
15.8888
15.9156
15.9209
15.9654
15.9684
15.9979
16.0351
16.0845
16.1693
16.2759
16.42
16.629
16.8782
17.3574
17.8311
19.0566
20.5682
21.7454
23.1815
23.5554
23.7551
22.3548
22.2632
24.6605
29.5734
42.9368
47.6275
46.9664
42.8431
66.1167
113.964
231.85
14.5196
14.5727
14.8257
15.0226
15.2064
15.4103
15.4327
15.5159
15.5727
15.6323
15.7246
15.7502
15.7827
15.8041
15.8332
15.8595
15.8982
15.9079
15.9206
15.956
15.9787
16.0057
16.0365
16.0859
16.1731
16.2846
16.4365
16.637
16.9254
17.4264
18.0333
19.3608
20.8864
22.0419
24.109
23.7523
24.8691
23.2586
22.2401
26.0855
30.4795
41.1311
46.8412
46.6854
44.0939
67.992
122.181
229.067
14.5059
14.5944
14.7698
14.9649
15.1549
15.3708
15.4105
15.5214
15.5629
15.6223
15.7339
15.7418
15.76
15.8024
15.8241
15.8547
15.8835
15.8981
15.9168
15.9462
15.976
15.9951
16.0446
16.0934
16.1772
16.286
16.4531
16.6764
16.9774
17.4439
18.2609
19.7109
21.2272
22.4191
24.4771
23.6314
26.1414
24.2972
23.7211
27.4665
29.6377
39.7393
45.9616
46.8458
44.4616
69.6184
130.563
201.249
14.4709
14.5187
14.7488
14.9629
15.1491
15.3048
15.3994
15.4958
15.5536
15.6148
15.7025
15.7312
15.7563
15.8085
15.8227
15.8553
15.8733
15.8959
15.9172
15.9456
15.977
15.9966
16.0406
16.0887
16.1792
16.2889
16.4616
16.6954
17.0384
17.4935
18.4135
20.1067
21.2716
22.5931
24.7383
25.0947
27.3306
25.5006
25.186
28.2896
31.2512
37.7299
45.5185
47.1941
44.7339
70.9604
129.453
189.215
14.4477
14.5152
14.6854
14.9715
15.1374
15.2378
15.3828
15.4966
15.5356
15.6116
15.6754
15.7092
15.7531
15.7918
15.8209
15.8551
15.8707
15.886
15.9158
15.945
15.9707
15.9997
16.0403
16.098
16.1828
16.2986
16.4659
16.7356
17.0859
17.505
18.4762
20.6109
21.9646
22.64
24.8361
26.6008
27.8454
27.3767
27.0378
28.717
30.5946
36.8128
44.5026
47.7107
43.5654
67.0633
125.881
164.03
14.4114
14.3668
14.7225
14.9509
15.0964
15.2438
15.3601
15.4595
15.5306
15.612
15.6743
15.6893
15.7641
15.7887
15.8204
15.8694
15.8663
15.8882
15.9306
15.9462
15.9781
16.008
16.0408
16.0978
16.1869
16.3027
16.4815
16.7743
17.14
17.6367
18.558
20.8758
22.1
23.5277
26.2736
27.9487
27.8097
29.3377
29.3957
28.4565
33.0526
34.855
44.0796
49.3097
46.2663
75.9668
125.321
158.062
14.3531
14.3116
14.6077
14.8769
15.0864
15.1808
15.3362
15.4279
15.5272
15.5975
15.6458
15.6839
15.7446
15.7828
15.8197
15.8586
15.867
15.886
15.927
15.9482
15.9667
16.0047
16.0404
16.1036
16.1901
16.3135
16.4962
16.8101
17.1906
17.6992
18.7373
21.0203
22.1165
24.1883
27.3157
28.3872
29.8625
32.2991
31.804
30.9977
33.9935
34.5129
43.0838
51.3663
49.4727
71.9518
110.192
137.828
14.3615
14.2815
14.5583
14.8622
15.1132
15.1715
15.3185
15.4193
15.5282
15.61
15.6347
15.6715
15.7299
15.7875
15.8199
15.8572
15.8636
15.9024
15.9242
15.9386
15.9672
16.0132
16.0492
16.1047
16.1937
16.3227
16.521
16.8317
17.2388
17.8371
18.9659
21.2312
22.5792
24.5843
28.1543
29.2207
31.4629
34.8879
32.8687
33.1078
36.3731
34.0607
42.3176
53.128
55.8475
81.8055
121.274
131.145
14.4227
14.2179
14.5651
14.8009
15.003
15.1521
15.2742
15.4322
15.4988
15.5883
15.6312
15.6678
15.7286
15.7707
15.8116
15.8747
15.8663
15.8999
15.9364
15.9496
15.9674
16.0045
16.042
16.1068
16.1994
16.334
16.5389
16.8365
17.2988
17.9638
19.1721
21.3262
22.6358
24.6309
28.3148
29.501
31.6273
35.8477
33.3895
33.1582
36.9426
34.9388
41.6695
55.1543
64.7001
79.0899
118.203
118.116
14.3624
14.181
14.4858
14.7057
14.9463
15.1157
15.2734
15.3689
15.4839
15.5815
15.6234
15.6594
15.7208
15.7918
15.8093
15.8615
15.8665
15.8993
15.9321
15.9402
15.98
16.0161
16.0416
16.1092
16.2023
16.3461
16.5489
16.8428
17.3355
18.1247
19.4113
21.4664
22.919
24.7606
28.1109
29.363
30.9225
36.4838
33.0326
31.541
37.0865
36.9702
40.7326
56.0644
72.0457
83.5677
116.29
121.066
14.3295
14.1251
14.4036
14.684
14.9339
15.0998
15.2789
15.3658
15.4551
15.5587
15.6387
15.6584
15.7359
15.7805
15.8004
15.8421
15.8596
15.8888
15.9252
15.942
15.9775
16.0123
16.0516
16.1118
16.207
16.3516
16.551
16.8572
17.3863
18.2607
19.5828
21.3782
22.8694
25.0013
29.0076
30.818
32.8492
36.2151
36.8906
33.2845
36.8325
36.3924
41.8109
53.2325
79.7068
87.6764
116.222
122.291
14.2604
14.1091
14.3881
14.6318
14.8843
15.0683
15.2661
15.3892
15.4501
15.5595
15.6223
15.651
15.7233
15.7672
15.7997
15.8498
15.8748
15.896
15.932
15.9402
15.9791
16.0063
16.046
16.1144
16.2101
16.3574
16.5543
16.8823
17.4245
18.3675
19.8008
21.4829
23.0896
25.3987
28.5359
31.3163
33.9756
38.5491
40.4525
32.1391
38.0106
39.8488
43.8544
52.7725
80.7389
97.9197
103.416
140.345
14.1828
14.0884
14.367
14.6009
14.894
15.0594
15.2215
15.332
15.4058
15.5351
15.6058
15.6508
15.7017
15.7852
15.8016
15.8311
15.8585
15.8799
15.9194
15.9384
15.9754
16.0032
16.0465
16.1139
16.211
16.3545
16.5675
16.918
17.4711
18.4053
19.9684
21.3405
23.3502
25.506
28.9284
31.3033
33.0528
36.8779
43.4532
34.2993
40.0577
41.0066
42.9582
54.3884
82.4804
104.156
107.35
139.857
14.085
14.1384
14.3858
14.5368
14.8524
15.0513
15.2334
15.2801
15.3957
15.5303
15.5963
15.672
15.7006
15.7706
15.7857
15.8308
15.8673
15.8955
15.9248
15.9401
15.9835
16.0039
16.0534
16.1094
16.2143
16.3544
16.5737
16.9356
17.516
18.4416
19.9894
21.3921
23.3779
25.4498
28.2577
31.5904
34.3415
38.4741
43.7496
36.0123
43.6426
41.5481
46.8322
57.4143
82.2225
108.644
99.5456
133.641
14.1046
14.024
14.3162
14.5024
14.8123
15.069
15.2646
15.2764
15.3744
15.494
15.5704
15.6426
15.7177
15.7721
15.7764
15.8467
15.8509
15.8829
15.9241
15.9531
15.9702
16.0048
16.0558
16.1104
16.2147
16.355
16.5708
16.935
17.5453
18.4977
19.9943
21.4654
23.5574
26.0325
28.2657
31.5554
32.8863
38.8242
43.5115
37.7143
43.1953
42.0839
48.2726
54.1368
75.0615
106.708
101.348
133.057
14.0277
13.9136
14.3129
14.4576
14.7483
14.985
15.245
15.2222
15.3682
15.4899
15.5725
15.6564
15.6904
15.7527
15.775
15.8266
15.8595
15.8834
15.9268
15.9475
15.9705
16.0068
16.054
16.1203
16.2172
16.3545
16.5676
16.9389
17.5814
18.5346
19.9833
21.518
23.4764
25.9185
28.3018
31.6756
33.5418
38.4368
43.0825
38.8547
43.5684
41.406
52.4549
59.7288
73.1967
101.631
97.7339
117.881
14.0243
13.8858
14.2265
14.4895
14.7445
14.9413
15.2147
15.1952
15.3835
15.4701
15.5696
15.63
15.6862
15.7488
15.7648
15.8225
15.8459
15.8849
15.9202
15.9441
15.9674
16.0056
16.0634
16.1176
16.2162
16.3607
16.5732
16.9378
17.5871
18.4989
19.9331
21.4084
23.5808
25.8622
27.695
30.3104
34.0786
38.0493
39.9652
40.2744
44.8506
47.2607
53.8255
57.6222
72.875
92.3027
91.6714
124.737
13.9169
13.8907
14.1821
14.3704
14.7235
14.8809
15.1919
15.1853
15.3372
15.4572
15.571
15.6182
15.6921
15.7229
15.7603
15.8408
15.8396
15.8773
15.9165
15.9372
15.9787
16.007
16.0575
16.1179
16.2226
16.3579
16.5732
16.9456
17.5718
18.4465
19.9648
21.3398
23.2724
25.2488
28.2271
30.2501
34.1227
36.9227
39.7197
42.2082
46.7143
51.3356
52.5983
66.065
73.3139
88.5424
89.5395
120.02
13.8911
13.8123
14.0471
14.3452
14.6754
14.8647
15.1499
15.1629
15.36
15.4589
15.5764
15.5837
15.656
15.72
15.7533
15.8295
15.8398
15.8921
15.9163
15.9491
15.9731
16.0099
16.0648
16.1178
16.221
16.3583
16.5725
16.9417
17.5402
18.4246
19.9241
21.4604
23.257
25.1721
27.3252
29.9036
32.3696
36.4753
39.4251
43.4879
46.2997
51.5631
56.0537
71.9302
74.3788
85.2578
94.8849
116.512
13.8255
13.7875
14.0194
14.3076
14.6544
14.8859
15.1068
15.1917
15.3055
15.4004
15.5547
15.5783
15.6568
15.7162
15.75
15.8113
15.8399
15.8817
15.9111
15.9426
15.9734
16.0105
16.0546
16.127
16.2222
16.3652
16.5804
16.9503
17.5411
18.4335
19.8454
21.1805
23.0988
24.8603
27.285
29.5436
32.6929
37.0621
38.1626
44.2352
46.84
52.3438
58.0796
65.2364
74.8959
85.4204
94.8537
98.917
13.791
13.7084
13.99
14.2474
14.6201
14.8103
15.038
15.1265
15.298
15.3968
15.5614
15.5754
15.6435
15.7141
15.7473
15.8054
15.8579
15.8793
15.9237
15.9511
15.973
16.01
16.056
16.1243
16.2219
16.3602
16.5781
16.9429
17.5426
18.4394
19.8332
21.0281
22.8945
24.603
27.0418
29.0961
31.6463
36.7122
37.9846
41.8659
46.6572
53.1007
61.4629
67.1394
76.3587
90.7228
94.4232
100.623
13.7377
13.5501
13.898
14.2176
14.6196
14.845
14.9523
15.1186
15.3095
15.3878
15.5421
15.5867
15.667
15.7027
15.7438
15.8053
15.8476
15.8966
15.9152
15.9382
15.9769
16.0213
16.0556
16.1187
16.218
16.3613
16.5706
16.9332
17.5439
18.4076
19.6752
20.9317
22.8327
23.9767
26.6375
28.9712
32.0932
34.8223
37.4331
40.6292
46.2203
53.075
62.3352
63.2773
76.6179
86.2389
91.8377
97.1625
13.7217
13.6056
13.8596
14.171
14.5905
14.7721
14.9444
15.0891
15.2204
15.4248
15.5155
15.5691
15.6386
15.699
15.7416
15.8035
15.835
15.8923
15.9045
15.9501
15.988
16.0145
16.0565
16.1179
16.2243
16.3531
16.5692
16.926
17.5269
18.3479
19.517
20.7071
22.7458
23.8835
26.3624
28.7151
31.7752
34.2021
37.2214
40.6471
47.8124
54.5894
59.9412
64.7487
77.5261
93.8589
87.5144
98.5645
13.6693
13.425
13.8076
14.1936
14.5873
14.764
14.9334
15.0766
15.2018
15.3996
15.4659
15.5525
15.6407
15.6896
15.7296
15.8028
15.8419
15.8913
15.9039
15.9423
15.9793
16.0197
16.0571
16.1184
16.2198
16.3432
16.5613
16.9117
17.5123
18.3294
19.4109
20.6553
22.263
23.7673
26.0769
27.8226
31.0622
32.9075
37.0247
39.3068
49.9602
51.9128
57.4819
64.5149
75.8925
83.3436
89.2747
96.354
13.6442
13.3885
13.8288
14.0095
14.6207
14.6933
14.9442
15.0535
15.1745
15.3686
15.4492
15.5193
15.6358
15.6922
15.7251
15.802
15.8188
15.8748
15.8979
15.9434
15.9722
16.0099
16.058
16.1176
16.2144
16.3441
16.553
16.9042
17.4749
18.2573
19.2988
20.6189
22.246
23.931
25.8963
27.3779
30.6707
32.5063
34.925
40.0704
46.6256
50.6466
53.6497
60.8444
72.1306
80.9071
79.8098
91.739
13.6073
13.2981
13.6768
13.9502
14.4644
14.6119
14.8815
15.1038
15.1571
15.3236
15.4484
15.5182
15.5989
15.7067
15.7159
15.8033
15.8176
15.875
15.8967
15.9359
15.9733
16.0191
16.0566
16.118
16.2102
16.3395
16.5419
16.8898
17.4564
18.2192
19.1655
20.5871
22.0274
23.8458
25.0603
27.5114
30.0846
32.0673
34.1461
37.6877
45.746
45.7549
50.6181
59.6624
71.5743
75.0308
77.6641
89.2201
13.6448
13.2478
13.597
13.9241
14.316
14.5386
14.8545
15.0535
15.1281
15.3221
15.3952
15.5209
15.6259
15.6775
15.7151
15.7966
15.8305
15.8652
15.8964
15.9363
15.9749
16.0102
16.0565
16.1173
16.215
16.3396
16.5423
16.8568
17.4072
18.2012
19.1536
20.6288
21.8525
23.2617
24.9975
27.2628
29.9906
31.832
33.6026
37.167
43.9603
45.6025
48.641
54.7456
67.4642
74.1904
77.6539
86.4679
13.5737
13.1736
13.5658
13.866
14.2909
14.5574
14.7992
15.0873
15.0977
15.2788
15.4158
15.4953
15.6016
15.6628
15.7322
15.8122
15.8081
15.8658
15.904
15.9415
15.9777
16.0087
16.0554
16.1177
16.212
16.3397
16.5419
16.8382
17.3628
18.1166
19.1297
20.6271
21.7683
23.2581
24.6862
26.8266
29.0576
31.2375
33.4825
36.1444
42.3589
44.3628
46.5814
51.0595
65.7524
71.2386
75.2611
86.066
13.644
13.1562
13.5531
13.8543
14.3206
14.5047
14.7373
15.0086
15.0786
15.2775
15.3775
15.5021
15.63
15.6693
15.7078
15.7839
15.8066
15.8615
15.8845
15.9266
15.9841
16.0096
16.0642
16.1243
16.2095
16.3327
16.5428
16.8192
17.3278
18.0496
19.1258
20.3879
21.3378
22.9446
24.2634
26.6662
28.4227
31.2017
33.2472
35.3272
40.3384
42.5422
43.3773
49.7553
64.1368
68.7662
69.827
75.4948
13.5868
13.2251
13.4474
13.9077
14.1825
14.4794
14.7269
14.9199
15.0416
15.222
15.3587
15.4656
15.6103
15.6445
15.699
15.7888
15.8046
15.8612
15.8844
15.9279
15.9719
16.0106
16.0598
16.1188
16.2058
16.3282
16.5378
16.8083
17.2972
17.9928
19.0825
20.2427
21.189
22.4846
23.8659
25.9359
28.2347
29.8329
31.3533
33.4428
38.7476
40.0922
42.9819
49.1339
59.8104
63.1488
65.7468
76.6643
13.576
13.0305
13.2462
13.7474
14.1959
14.4101
14.6239
14.8395
15.0246
15.2119
15.3128
15.4618
15.6036
15.6285
15.6967
15.7595
15.8185
15.8605
15.8868
15.927
15.9679
16.0216
16.0664
16.1199
16.2031
16.3189