/*--------------------------------*- C++ -*----------------------------------*\
  =========                 |
  \\      /  F ield         | OpenFOAM: The Open Source CFD Toolbox
   \\    /   O peration     | Website:  https://openfoam.org
    \\  /    A nd           | Version:  10
     \\/     M anipulation  |
\*---------------------------------------------------------------------------*/
FoamFile
{
    format      ascii;
    class       volScalarField;
    location    "10";
    object      p;
}
// * * * * * * * * * * * * * * * * * * * * * * * * * * * * * * * * * * * * * //

dimensions      [0 2 -2 0 0 0 0];

internalField   nonuniform List<scalar> 
38016
(
101326
101326
101327
101326
101327
101327
101327
101327
101326
101326
101325
101323
101320
101315
101309
101301
101290
101276
101259
101236
101208
101174
101130
101077
101015
100943
100880
100826
100785
100756
100738
100729
100727
100732
100742
100756
100776
100800
100828
100859
100894
100932
100972
101013
101056
101101
101147
101199
101326
101326
101327
101326
101327
101327
101327
101327
101326
101326
101324
101323
101320
101315
101309
101300
101290
101276
101258
101235
101207
101171
101127
101073
101009
100936
100871
100816
100774
100744
100725
100715
100712
100716
100725
100739
100758
100781
100809
100840
100875
100912
100952
100993
101036
101082
101128
101182
101326
101326
101327
101326
101327
101327
101327
101327
101326
101326
101324
101323
101320
101315
101309
101300
101289
101275
101257
101234
101205
101169
101124
101069
101004
100929
100863
100806
100763
100732
100712
100701
100697
100700
100709
100722
100741
100764
100791
100822
100857
100895
100935
100976
101020
101065
101113
101167
101326
101326
101327
101326
101327
101327
101327
101327
101326
101326
101324
101322
101319
101315
101309
101300
101289
101274
101256
101233
101203
101167
101121
101065
100998
100922
100854
100797
100752
100720
100699
100687
100683
100685
100693
100706
100724
100747
100774
100806
100840
100879
100919
100961
101004
101049
101096
101150
101326
101326
101327
101326
101327
101327
101327
101326
101326
101325
101324
101322
101319
101315
101308
101299
101288
101273
101255
101231
101201
101164
101118
101061
100993
100916
100846
100787
100741
100708
100686
100673
100668
100670
100677
100690
100708
100731
100758
100789
100824
100862
100903
100944
100987
101031
101076
101127
101326
101326
101327
101326
101327
101327
101327
101326
101326
101325
101324
101322
101319
101315
101308
101299
101287
101273
101254
101230
101200
101162
101115
101057
100987
100909
100837
100777
100730
100696
100673
100659
100654
100655
100661
100674
100692
100715
100742
100773
100808
100846
100885
100925
100966
101008
101050
101097
101326
101326
101327
101326
101327
101327
101327
101326
101326
101325
101324
101322
101319
101314
101308
101299
101287
101272
101253
101229
101198
101160
101112
101053
100982
100902
100829
100768
100719
100684
100660
100646
100640
100640
100646
100658
100676
100699
100726
100757
100791
100827
100866
100904
100942
100980
101018
101059
101326
101326
101327
101326
101327
101327
101327
101326
101326
101325
101324
101322
101319
101314
101307
101298
101286
101271
101252
101227
101196
101158
101109
101049
100977
100895
100821
100758
100709
100672
100647
100632
100625
100625
100631
100642
100660
100682
100709
100739
100772
100808
100844
100879
100913
100947
100980
101015
101326
101326
101327
101326
101327
101327
101327
101326
101326
101325
101324
101322
101319
101314
101307
101298
101286
101271
101251
101226
101195
101155
101106
101045
100972
100889
100813
100749
100698
100660
100635
100619
100611
100610
100616
100627
100644
100666
100692
100721
100753
100786
100819
100851
100881
100910
100937
100966
101326
101326
101327
101326
101327
101327
101327
101326
101326
101325
101324
101322
101319
101314
101307
101298
101285
101270
101250
101225
101193
101153
101103
101041
100966
100882
100805
100739
100687
100649
100622
100605
100597
100596
100600
100611
100628
100649
100674
100702
100732
100762
100792
100820
100846
100870
100892
100915
101326
101326
101327
101326
101327
101327
101327
101326
101326
101325
101324
101322
101319
101314
101307
101297
101285
101269
101249
101224
101191
101151
101100
101037
100961
100876
100797
100730
100677
100637
100610
100592
100583
100581
100585
100595
100612
100632
100656
100682
100709
100736
100762
100786
100807
100827
100845
100863
101326
101326
101327
101326
101327
101327
101327
101326
101326
101325
101324
101322
101319
101314
101306
101297
101284
101269
101248
101222
101190
101149
101097
101033
100956
100869
100789
100721
100666
100626
100597
100579
100569
100567
100570
100580
100595
100614
100636
100660
100684
100708
100731
100751
100768
100783
100797
100811
101326
101326
101327
101326
101327
101327
101327
101326
101326
101325
101324
101322
101318
101313
101306
101296
101284
101268
101247
101221
101188
101147
101094
101030
100951
100863
100781
100712
100656
100614
100585
100566
100556
100552
100555
100564
100578
100596
100616
100637
100658
100679
100698
100714
100728
100739
100750
100760
101326
101326
101327
101326
101327
101327
101327
101326
101326
101325
101324
101322
101318
101313
101306
101296
101283
101267
101246
101220
101186
101145
101091
101026
100946
100856
100773
100702
100646
100603
100573
100553
100542
100537
100540
100548
100561
100577
100595
100613
100631
100648
100664
100677
100687
100696
100704
100712
101326
101326
101327
101326
101327
101327
101327
101326
101326
101325
101324
101322
101318
101313
101306
101296
101283
101267
101245
101219
101185
101142
101089
101022
100941
100850
100766
100693
100636
100592
100560
100540
100528
100523
100524
100531
100543
100557
100573
100588
100603
100617
100629
100639
100647
100654
100659
100665
101326
101326
101327
101326
101327
101327
101327
101326
101326
101325
101324
101322
101318
101313
101306
101295
101282
101266
101245
101217
101183
101140
101086
101019
100936
100844
100758
100685
100625
100581
100548
100527
100514
100508
100509
100515
100525
100537
100550
100562
100574
100586
100595
100603
100608
100613
100616
100620
101326
101326
101327
101326
101327
101327
101326
101326
101326
101325
101324
101321
101318
101313
101305
101295
101282
101265
101244
101216
101182
101138
101083
101015
100932
100837
100751
100676
100615
100569
100536
100514
100500
100493
100493
100498
100506
100516
100526
100536
100546
100554
100561
100567
100570
100573
100575
100578
101326
101326
101327
101326
101327
101327
101326
101326
101326
101325
101324
101321
101318
101313
101305
101295
101281
101265
101243
101215
101180
101136
101080
101011
100927
100831
100743
100667
100605
100558
100524
100501
100486
100478
100477
100480
100487
100495
100502
100510
100517
100523
100528
100532
100534
100535
100537
100538
101326
101326
101327
101326
101327
101327
101326
101326
101326
101325
101324
101321
101318
101312
101305
101294
101281
101264
101242
101214
101178
101134
101078
101008
100922
100825
100736
100658
100595
100547
100512
100488
100472
100463
100461
100462
100467
100473
100478
100483
100488
100492
100496
100498
100499
100499
100500
100500
101326
101326
101327
101326
101327
101327
101326
101326
101326
101325
101324
101321
101318
101312
101305
101294
101280
101263
101241
101213
101177
101132
101075
101005
100918
100819
100728
100650
100586
100536
100500
100474
100458
100448
100444
100444
100447
100450
100453
100456
100459
100462
100464
100465
100465
100465
100464
100465
101326
101326
101327
101326
101327
101327
101326
101326
101326
101325
101323
101321
101318
101312
101304
101294
101280
101262
101240
101211
101175
101130
101072
101001
100913
100814
100721
100641
100576
100525
100488
100461
100443
100432
100427
100425
100426
100427
100429
100430
100431
100433
100434
100434
100433
100432
100431
100431
101326
101326
101327
101326
101327
101327
101326
101326
101326
101325
101323
101321
101317
101312
101304
101293
101280
101262
101239
101210
101174
101128
101070
100998
100909
100808
100714
100633
100566
100514
100476
100448
100429
100417
100410
100407
100405
100405
100404
100404
100404
100404
100404
100404
100402
100401
100400
100399
101326
101326
101327
101326
101327
101327
101326
101326
101326
101325
101323
101321
101317
101312
101304
101293
101279
101261
101238
101209
101172
101126
101067
100995
100904
100802
100707
100625
100557
100504
100464
100435
100414
100401
100392
100387
100384
100382
100380
100378
100377
100377
100376
100375
100373
100371
100370
100369
101326
101326
101327
101326
101327
101327
101326
101326
101326
101325
101323
101321
101317
101312
101304
101293
101279
101260
101237
101208
101171
101124
101065
100991
100900
100797
100701
100617
100547
100493
100452
100421
100400
100385
100375
100368
100363
100359
100356
100353
100351
100350
100349
100347
100345
100343
100342
100341
101326
101326
101327
101326
101327
101327
101326
101326
101326
101325
101323
101321
101317
101312
101304
101292
101278
101260
101236
101207
101169
101122
101062
100988
100896
100791
100694
100609
100538
100482
100440
100408
100385
100369
100357
100349
100342
100337
100332
100328
100326
100324
100322
100320
100318
100316
100315
100314
101326
101326
101327
101326
101327
101327
101326
101326
101326
101325
101323
101321
101317
101311
101303
101292
101278
101259
101236
101206
101168
101120
101060
100985
100892
100786
100687
100601
100529
100471
100427
100394
100370
100353
100340
100330
100322
100315
100309
100305
100301
100299
100297
100294
100292
100290
100289
100288
101326
101326
101327
101326
101327
101327
101326
101326
101326
101325
101323
101321
101317
101311
101303
101292
101277
101259
101235
101204
101166
101118
101058
100982
100888
100781
100681
100593
100520
100461
100415
100381
100355
100336
100322
100310
100301
100293
100287
100281
100278
100275
100272
100270
100267
100265
100264
100263
101326
101326
101327
101326
101327
101327
101326
101326
101326
101325
101323
101321
101317
101311
101303
101292
101277
101258
101234
101203
101165
101116
101055
100979
100884
100776
100675
100585
100510
100450
100403
100367
100340
100320
100304
100291
100281
100272
100265
100259
100255
100252
100249
100246
100243
100241
100240
100239
101326
101326
101327
101326
101327
101326
101326
101326
101326
101325
101323
101321
101317
101311
101303
101291
101276
101257
101233
101202
101163
101115
101053
100976
100880
100771
100669
100578
100502
100440
100391
100354
100325
100303
100286
100272
100261
100251
100243
100237
100233
100229
100226
100223
100221
100219
100217
100216
101326
101326
101327
101326
101327
101326
101326
101326
101326
101325
101323
101321
101317
101311
101303
101291
101276
101257
101232
101201
101162
101113
101051
100973
100876
100766
100663
100571
100493
100429
100379
100340
100310
100287
100268
100253
100241
100231
100222
100216
100211
100208
100205
100202
100199
100197
100195
100194
101326
101326
101327
101326
101327
101326
101326
101326
101326
101325
101323
101321
101317
101311
101303
101291
101276
101256
101231
101200
101160
101111
101048
100971
100873
100762
100657
100564
100484
100419
100367
100326
100295
100270
100250
100235
100221
100210
100202
100195
100190
100186
100183
100180
100178
100175
100174
100172
101326
101326
101327
101326
101327
101326
101326
101326
101326
101325
101323
101321
101317
101311
101302
101291
101275
101256
101231
101199
101159
101109
101046
100968
100869
100758
100652
100557
100476
100409
100355
100313
100279
100253
100233
100216
100202
100191
100181
100175
100169
100166
100163
100160
100157
100155
100153
100151
101326
101326
101327
101326
101327
101326
101326
101326
101326
101325
101323
101321
101317
101311
101302
101291
101275
101255
101230
101198
101158
101107
101044
100965
100866
100754
100647
100551
100467
100398
100343
100299
100264
100237
100215
100197
100183
100171
100162
100155
100149
100146
100142
100139
100136
100134
100132
100130
101326
101326
101327
101326
101327
101326
101326
101326
101325
101325
101323
101321
101317
101311
101302
101290
101275
101255
101229
101197
101156
101106
101042
100963
100863
100750
100642
100544
100459
100389
100331
100285
100249
100220
100197
100179
100164
100152
100142
100135
100130
100126
100122
100119
100116
100114
100111
100110
101326
101326
101327
101326
101327
101326
101326
101326
101325
101325
101323
101320
101317
101311
101302
101290
101274
101254
101228
101196
101155
101104
101040
100960
100860
100746
100637
100538
100452
100379
100319
100271
100234
100204
100180
100161
100145
100133
100123
100115
100110
100106
100103
100099
100096
100093
100091
100089
101326
101326
101327
101326
101327
101326
101326
101326
101325
101325
101323
101320
101317
101311
101302
101290
101274
101254
101228
101195
101154
101103
101038
100958
100857
100743
100633
100532
100444
100369
100308
100258
100218
100187
100162
100142
100126
100114
100104
100096
100090
100086
100083
100080
100076
100073
100071
100069
101326
101326
101327
101326
101327
101326
101326
101326
101325
101325
101323
101320
101317
101311
101302
101290
101274
101253
101227
101194
101153
101101
101036
100956
100855
100740
100629
100527
100437
100360
100296
100245
100203
100171
100145
100124
100108
100095
100084
100077
100071
100067
100063
100060
100056
100053
100051
100049
101326
101326
101327
101326
101327
101326
101326
101326
101325
101324
101323
101320
101317
101311
101302
101290
101274
101253
101227
101193
101151
101100
101034
100954
100853
100737
100625
100522
100430
100351
100285
100232
100189
100154
100127
100106
100089
100076
100065
100057
100051
100047
100043
100040
100036
100033
100030
100028
101326
101326
101327
101326
101327
101326
101326
101326
101325
101324
101323
101320
101317
101311
101302
101290
101274
101253
101226
101192
101150
101098
101033
100952
100850
100735
100622
100517
100423
100342
100274
100219
100174
100138
100110
100088
100070
100056
100046
100038
100032
100027
100023
100019
100016
100012
100009
100007
101326
101326
101327
101326
101327
101326
101326
101326
101325
101324
101323
101320
101317
101311
101302
101290
101273
101252
101225
101191
101149
101097
101031
100950
100848
100732
100619
100513
100417
100334
100264
100206
100159
100122
100093
100070
100052
100037
100026
100018
100012
100007
100003
99998.9
99994.9
99991.3
99988.2
99986.1
101326
101326
101327
101326
101327
101326
101326
101326
101325
101324
101323
101320
101317
101311
101302
101290
101273
101252
101225
101191
101148
101095
101030
100948
100847
100730
100617
100509
100412
100327
100254
100194
100145
100106
100076
100052
100033
100018
100007
99998.1
99991.7
99986.9
99982.4
99978
99973.7
99969.8
99966.5
99964.2
101326
101326
101327
101326
101327
101326
101326
101326
101325
101324
101323
101320
101317
101311
101302
101290
101273
101252
101225
101190
101147
101094
101028
100947
100845
100729
100614
100506
100407
100319
100244
100182
100131
100091
100059
100034
100014
99998.4
99986.6
99977.7
99971.2
99966.1
99961.3
99956.6
99952.1
99947.9
99944.3
99941.9
101326
101326
101327
101326
101327
101326
101326
101326
101325
101324
101323
101320
101317
101311
101302
101290
101273
101252
101224
101189
101146
101093
101027
100946
100844
100728
100613
100503
100402
100313
100235
100171
100118
100075
100042
100015
99994.8
99978.6
99966.3
99957
99950.1
99944.7
99939.6
99934.5
99929.7
99925.2
99921.5
99919
101326
101326
101327
101326
101327
101326
101326
101326
101325
101324
101323
101320
101317
101311
101302
101290
101273
101252
101224
101188
101145
101092
101025
100944
100843
100727
100611
100501
100398
100307
100227
100160
100105
100060
100025
99997.5
99975.7
99958.7
99945.7
99935.9
99928.6
99922.7
99917.2
99911.8
99906.6
99901.9
99897.9
99895.3
101326
101326
101327
101326
101327
101326
101326
101326
101325
101324
101323
101320
101317
101311
101302
101290
101273
101251
101223
101188
101144
101090
101024
100943
100842
100726
100611
100499
100395
100301
100219
100150
100092
100046
100009
99979.6
99956.7
99938.7
99925
99914.6
99906.7
99900.3
99894.2
99888.3
99882.7
99877.7
99873.5
99870.8
101326
101326
101327
101326
101327
101326
101326
101326
101325
101324
101323
101320
101317
101311
101302
101290
101273
101251
101223
101187
101143
101090
101023
100943
100842
100726
100610
100498
100393
100297
100213
100140
100081
100032
99992.8
99962
99937.8
99918.8
99904.2
99893.1
99884.6
99877.7
99871
99864.5
99858.5
99853.1
99848.7
99845.8
101326
101326
101327
101326
101327
101326
101326
101326
101325
101324
101323
101320
101317
101311
101302
101290
101273
101251
101223
101187
101142
101089
101023
100942
100842
100727
100611
100498
100391
100293
100206
100132
100069
100018
99977.2
99944.7
99919
99898.9
99883.4
99871.6
99862.5
99854.9
99847.6
99840.5
99834
99828.2
99823.6
99820.5
101326
101326
101327
101326
101327
101326
101326
101326
101325
101324
101323
101320
101317
101311
101302
101290
101273
101251
101223
101186
101142
101088
101022
100942
100842
100727
100612
100498
100390
100290
100201
100124
100059
100005
99962.1
99927.7
99900.4
99878.9
99862.4
99849.7
99840
99831.8
99823.9
99816.3
99809.4
99803.3
99798.4
99795.2
101326
101326
101327
101326
101327
101326
101326
101326
101325
101324
101323
101321
101317
101311
101303
101290
101273
101251
101222
101186
101141
101087
101022
100942
100843
100729
100613
100499
100390
100288
100197
100117
100050
99993.4
99947.7
99911.1
99882
99859.1
99841.3
99827.7
99817.1
99808.1
99799.5
99791.5
99784.1
99777.8
99772.7
99769.2
101326
101326
101327
101326
101327
101326
101326
101326
101325
101324
101323
101321
101317
101311
101303
101290
101274
101251
101222
101186
101141
101087
101021
100942
100844
100730
100615
100501
100390
100287
100194
100112
100041
99982.2
99934
99895.1
99864.1
99839.5
99820.3
99805.6
99794.1
99784.3
99775
99766.4
99758.7
99752
99746.7
99742.9
101326
101326
101327
101326
101327
101326
101326
101326
101325
101324
101323
101321
101317
101311
101303
101291
101274
101251
101222
101185
101140
101086
101021
100942
100845
100733
100618
100503
100392
100288
100192
100107
100034
99972.1
99921.2
99879.9
99846.8
99820.3
99799.6
99783.5
99771
99760.3
99750.3
99741.2
99733.3
99726.5
99720.8
99716.8
101326
101326
101327
101326
101327
101326
101326
101326
101325
101324
101323
101321
101317
101311
101303
101291
101274
101252
101222
101185
101140
101086
101021
100943
100847
100735
100621
100507
100395
100289
100191
100104
100028
99963.1
99909.4
99865.6
99830.2
99801.7
99779.2
99761.7
99747.9
99736.1
99725.3
99715.8
99707.6
99700.6
99694.6
99690.1
101326
101326
101327
101326
101327
101326
101326
101326
101325
101324
101323
101321
101317
101311
101303
101291
101274
101252
101222
101185
101140
101086
101022
100944
100849
100739
100625
100511
100399
100291
100192
100102
100023
99955.4
99898.9
99852.4
99814.5
99784
99759.6
99740.5
99725.3
99712.5
99700.8
99690.6
99682
99674.5
99668.1
99663
101326
101326
101327
101326
101327
101326
101326
101326
101325
101324
101323
101321
101317
101312
101303
101291
101274
101252
101222
101185
101140
101087
101023
100946
100851
100742
100630
100516
100403
100295
100193
100101
100020
99949.1
99889.6
99840.3
99799.9
99767.2
99740.9
99720
99703.4
99689.4
99676.7
99665.3
99655.7
99647.4
99640.3
99634.6
101326
101326
101327
101326
101327
101326
101326
101326
101325
101324
101323
101321
101317
101312
101303
101291
101274
101252
101222
101185
101141
101087
101024
100948
100854
100747
100635
100522
100409
100300
100197
100102
100018
99944.3
99881.7
99829.5
99786.4
99751.3
99722.9
99700.2
99682
99666.8
99652.9
99640.3
99629.5
99620.3
99612.3
99605.8
101326
101326
101327
101326
101327
101326
101326
101326
101325
101324
101323
101321
101317
101312
101303
101291
101275
101252
101223
101186
101141
101088
101025
100950
100858
100752
100641
100529
100416
100306
100201
100105
100018
99941
99875.4
99820.1
99774.2
99736.5
99705.7
99680.9
99660.8
99644
99628.9
99615.4
99603.7
99593.6
99584.6
99577
101326
101326
101327
101326
101327
101326
101326
101326
101325
101325
101323
101321
101317
101312
101304
101292
101275
101253
101223
101186
101142
101089
101027
100952
100862
100757
100648
100536
100424
100313
100207
100109
100019
99939.5
99870.7
99812.3
99763.3
99722.8
99689.6
99662.5
99640.4
99622
99605.6
99591.3
99578.9
99567.8
99557.7
99548.9
101326
101326
101327
101326
101327
101326
101326
101326
101325
101325
101323
101321
101317
101312
101304
101292
101275
101253
101224
101187
101143
101090
101028
100955
100866
100763
100656
100545
100433
100322
100215
100114
100022
99939.8
99867.8
99806.1
99754
99710.6
99674.7
99645.1
99620.8
99600.5
99582.9
99567.9
99554.9
99542.7
99531.3
99521.2
101326
101326
101327
101326
101327
101326
101326
101326
101325
101325
101323
101321
101317
101312
101304
101292
101276
101253
101224
101187
101144
101092
101031
100958
100871
100770
100664
100554
100443
100332
100224
100122
100027
99942
99866.8
99801.8
99746.4
99699.9
99661.1
99628.9
99602.2
99579.9
99561
99545.3
99531.7
99518.6
99505.9
99494.4
101326
101326
101327
101326
101327
101326
101326
101326
101325
101325
101323
101321
101318
101312
101304
101292
101276
101254
101225
101188
101145
101093
101033
100962
100876
100777
100673
100564
100454
100343
100235
100131
100034
99946.2
99867.9
99799.5
99740.7
99690.9
99649
99614
99584.8
99560.2
99539.7
99523.2
99509.1
99495.2
99481.5
99468.8
101326
101326
101327
101326
101327
101326
101326
101326
101325
101325
101323
101321
101318
101312
101304
101293
101276
101254
101225
101189
101146
101096
101036
100966
100882
100785
100682
100575
100466
100355
100246
100142
100043
99952.4
99871
99799.3
99737.1
99683.9
99638.8
99600.8
99568.8
99541.8
99519.5
99501.9
99487
99472.2
99457.5
99443.5
101326
101326
101327
101327
101327
101327
101326
101326
101325
101325
101323
101321
101318
101312
101305
101293
101277
101255
101226
101191
101148
101098
101039
100971
100888
100793
100692
100587
100479
100369
100260
100154
100053
99960.5
99876.2
99801.2
99735.7
99679.1
99630.7
99589.5
99554.5
99524.9
99500.6
99481.6
99465.6
99449.8
99433.9
99418.8
101326
101326
101327
101327
101327
101327
101326
101326
101326
101325
101323
101321
101318
101313
101305
101293
101277
101256
101227
101192
101150
101100
101043
100975
100894
100802
100703
100600
100493
100384
100274
100168
100066
99970.6
99883.5
99805.4
99736.5
99676.6
99624.8
99580.3
99542.2
99509.9
99483.4
99462.6
99445.1
99427.8
99410.7
99394.3
101327
101326
101327
101327
101327
101327
101326
101326
101326
101325
101323
101321
101318
101313
101305
101294
101278
101256
101228
101194
101152
101103
101047
100981
100902
100811
100715
100613
100508
100399
100290
100183
100080
99982.6
99892.9
99811.9
99739.7
99676.4
99621.3
99573.6
99532.4
99497.3
99468.4
99445.2
99425.5
99406.4
99387.8
99370.2
101327
101326
101327
101327
101327
101327
101326
101326
101326
101325
101323
101321
101318
101313
101305
101294
101279
101257
101230
101195
101154
101107
101051
100986
100909
100821
100727
100627
100523
100416
100307
100200
100095
99996.4
99904.4
99820.5
99745.2
99678.5
99620.2
99569.3
99525.1
99487.2
99455.4
99429.2
99406.3
99384.5
99363.9
99344.4
101327
101326
101327
101327
101327
101327
101326
101326
101326
101325
101323
101321
101318
101313
101306
101295
101279
101258
101231
101197
101157
101110
101056
100992
100917
100831
100739
100642
100540
100434
100326
100218
100113
100012
99917.9
99831.3
99752.9
99683.1
99621.5
99567.5
99520.4
99479.6
99444.8
99415
99388.4
99363.3
99340.1
99318.3
101327
101326
101327
101327
101327
101327
101326
101326
101326
101325
101324
101322
101318
101313
101306
101295
101280
101259
101232
101199
101160
101114
101061
100999
100925
100842
100752
100657
100557
100452
100345
100237
100131
100029
99933.2
99844.1
99762.9
99689.9
99625.1
99567.9
99517.8
99474.2
99436.2
99402.5
99371.6
99342.7
99316.6
99292.4
101327
101326
101327
101327
101327
101327
101326
101326
101326
101325
101324
101322
101319
101314
101306
101296
101281
101260
101234
101202
101163
101118
101066
101006
100934
100853
100766
100673
100575
100471
100365
100257
100151
100048
99950.4
99859
99775.1
99699.1
99631
99570.7
99517.5
99470.7
99429.4
99391.9
99356.9
99324.3
99295.1
99268.1
101327
101326
101327
101327
101327
101327
101326
101326
101326
101325
101324
101322
101319
101314
101307
101296
101282
101262
101236
101204
101166
101122
101072
101013
100943
100865
100780
100690
100593
100491
100386
100279
100172
100068
99969.1
99875.8
99789.4
99710.5
99639.3
99575.6
99519
99468.7
99423.7
99382.5
99343.9
99308.1
99275.7
99245.6
101327
101326
101327
101327
101327
101327
101326
101326
101326
101325
101324
101322
101319
101314
101307
101297
101283
101263
101238
101207
101170
101127
101077
101020
100953
100877
100795
100707
100612
100512
100407
100301
100194
100090
99989.2
99894.2
99805.6
99724
99649.8
99582.8
99522.6
99468.5
99419.6
99374.7
99333
99294.1
99258.2
99224.1
101327
101326
101327
101327
101327
101327
101326
101326
101326
101325
101324
101322
101319
101315
101308
101298
101283
101264
101240
101209
101173
101132
101084
101028
100963
100889
100810
100724
100632
100533
100430
100323
100217
100112
100010
99914
99823.5
99739.5
99662.4
99592.2
99528.5
99470.8
99418.2
99369.7
99324.7
99282.4
99242.7
99204.6
101327
101326
101327
101327
101327
101327
101326
101326
101326
101325
101324
101322
101319
101315
101308
101298
101285
101266
101242
101212
101177
101137
101090
101036
100973
100902
100825
100742
100652
100555
100453
100347
100240
100135
100033
99934.9
99842.7
99756.6
99676.9
99603.7
99536.8
99475.7
99419.6
99367.7
99319
99272.9
99229.1
99186.7
101327
101326
101327
101327
101327
101327
101326
101326
101326
101325
101324
101322
101320
101315
101309
101299
101286
101267
101244
101215
101181
101142
101097
101044
100984
100915
100841
100760
100672
100577
100476
100371
100264
100158
100055
99956.6
99862.9
99774.9
99692.9
99617
99547.1
99483
99424
99369.2
99317.8
99268.9
99222.3
99176.9
101327
101326
101327
101327
101327
101327
101327
101326
101326
101325
101324
101322
101320
101316
101309
101300
101287
101269
101246
101219
101186
101147
101104
101053
100995
100928
100857
100779
100693
100600
100500
100396
100289
100182
100078
99978.7
99883.8
99794.1
99710
99631.5
99558.7
99491.3
99428.8
99370.4
99315.6
99263.5
99214
99166.3
101327
101326
101327
101327
101327
101327
101327
101326
101326
101325
101324
101323
101320
101316
101310
101301
101288
101271
101249
101222
101190
101153
101111
101062
101006
100942
100873
100797
100714
100623
100525
100421
100313
100206
100102
100001
99904.9
99813.9
99728
99647.2
99571.5
99500.8
99434.6
99372.2
99313.1
99256.3
99201.6
99148.1
101327
101326
101327
101327
101327
101327
101327
101326
101326
101325
101324
101323
101320
101316
101310
101302
101289
101273
101251
101225
101195
101159
101118
101071
101017
100956
100890
100817
100736
100647
100550
100446
100338
100230
100125
100023
99925.9
99833.8
99746.4
99663.7
99585.6
99511.9
99442.3
99376.2
99312.9
99251.5
99191.7
99132.4
101327
101326
101327
101327
101327
101327
101327
101326
101326
101325
101324
101323
101321
101317
101311
101302
101291
101275
101254
101229
101199
101165
101126
101080
101029
100970
100906
100836
100758
100671
100575
100472
100364
100255
100147
100044
99946.4
99853.4
99764.9
99680.8
99600.8
99524.8
99452.5
99383.3
99316.7
99252
99188.7
99126
101327
101327
101327
101327
101327
101327
101327
101326
101326
101326
101325
101323
101321
101317
101311
101303
101292
101277
101257
101233
101204
101171
101133
101090
101040
100984
100923
100856
100780
100695
100601
100498
100389
100279
100170
100065
99966
99872.1
99782.9
99697.9
99616.7
99538.9
99464.3
99392.4
99322.8
99254.7
99187.8
99121
101327
101327
101327
101327
101327
101327
101327
101326
101326
101326
101325
101323
101321
101318
101312
101304
101293
101279
101260
101237
101209
101177
101141
101100
101052
100999
100941
100876
100803
100720
100627
100525
100415
100303
100192
100085
99984.2
99889.3
99799.6
99714.2
99632.3
99553.5
99477.5
99403.7
99331.6
99260.5
99189.9
99118.9
101327
101327
101328
101327
101327
101327
101327
101327
101326
101326
101325
101324
101321
101318
101313
101305
101295
101281
101263
101240
101214
101184
101149
101109
101064
101014
100958
100896
100825
100745
100654
100552
100442
100327
100213
100104
100001
99904.5
99814.3
99728.7
99646.8
99567.8
99491.2
99416.4
99343.1
99270.3
99197.7
99124.2
101327
101327
101328
101327
101327
101327
101327
101327
101326
101326
101325
101324
101322
101318
101314
101306
101296
101283
101266
101244
101219
101190
101157
101119
101077
101028
100976
100916
100848
100770
100681
100579
100468
100352
100234
100121
100015
99917
99825.9
99740.3
99658.7
99580
99503.4
99428.4
99354.2
99280
99205
99127.6
101327
101327
101328
101327
101327
101327
101327
101327
101326
101326
101325
101324
101322
101319
101314
101307
101298
101285
101269
101249
101225
101197
101166
101130
101089
101043
100993
100936
100872
100796
100708
100608
100496
100376
100255
100137
100027
99926.5
99834
99748
99666.7
99588.6
99512.8
99438.3
99364.6
99290.8
99216.2
99139.6
101327
101327
101328
101327
101327
101327
101327
101327
101326
101326
101325
101324
101322
101319
101315
101309
101299
101287
101272
101253
101230
101204
101174
101140
101101
101058
101011
100957
100895
100822
100736
100637
100524
100401
100275
100152
100037
99932.4
99837.6
99750.8
99669.8
99592.5
99517.6
99444.2
99371.8
99299.5
99226.7
99152.6
101327
101327
101328
101327
101327
101327
101327
101327
101326
101326
101325
101324
101323
101320
101316
101310
101301
101290
101275
101257
101235
101211
101182
101150
101114
101073
101029
100978
100918
100848
100765
100666
100552
100427
100296
100166
100045
99934.6
99836.3
99747.9
99666.7
99590
99516.2
99444.2
99373.3
99303.3
99233.8
99164.9
101327
101327
101328
101327
101327
101327
101327
101327
101327
101326
101326
101325
101323
101320
101317
101311
101303
101292
101278
101261
101241
101217
101191
101160
101126
101088
101046
100998
100942
100875
100794
100696
100582
100454
100317
100180
100050
99932.8
99829.5
99738.4
99656.3
99580
99507
99435.6
99365.1
99294.9
99225.1
99156
101327
101327
101328
101327
101327
101327
101327
101327
101327
101326
101326
101325
101323
101321
101317
101312
101304
101294
101281
101265
101246
101224
101199
101171
101139
101103
101064
101019
100966
100902
100823
100727
100613
100481
100338
100193
100053
99927.1
99816.9