/*--------------------------------*- C++ -*----------------------------------*\
  =========                 |
  \\      /  F ield         | OpenFOAM: The Open Source CFD Toolbox
   \\    /   O peration     | Website:  https://openfoam.org
    \\  /    A nd           | Version:  10
     \\/     M anipulation  |
\*---------------------------------------------------------------------------*/
FoamFile
{
    format      ascii;
    class       surfaceScalarField;
    location    "10";
    object      phi;
}
// * * * * * * * * * * * * * * * * * * * * * * * * * * * * * * * * * * * * * //

dimensions      [0 3 -1 0 0 0 0];

internalField   nonuniform List<scalar> 
75600
(
2.16442
-1217.93
1218.37
1.79707
-1008.29
1008.65
1.49301
-834.82
835.124
1.24159
-691.202
691.453
1.03355
-572.331
572.539
0.861393
-473.947
474.119
0.718898
-392.529
392.671
0.600915
-325.162
325.28
0.503195
-269.435
269.533
0.422216
-223.353
223.434
0.355068
-185.267
185.335
0.299338
-153.814
153.87
0.253027
-127.867
127.913
0.214476
-106.497
106.535
0.182308
-88.9386
88.9708
0.155374
-74.5633
74.5903
0.132717
-62.8558
62.8785
0.11353
-53.3964
53.4156
0.0971339
-45.8464
45.8628
0.0829409
-39.9356
39.9498
0.0704515
-35.4543
35.4668
0.0592136
-32.2431
32.2544
0.048849
-30.1935
30.2038
0.0390793
-29.2336
29.2433
0.0296272
-29.2386
29.248
0.022185
-23.4432
23.4507
0.0164552
-18.7946
18.8003
0.0120792
-15.0612
15.0656
0.00870303
-12.0619
12.0652
0.00604364
-9.65363
9.65629
0.00389396
-7.72102
7.72316
0.00210692
-6.17156
6.17334
0.000564923
-4.93039
4.93193
-0.000798595
-3.93748
3.93885
-0.00203765
-3.14303
3.14426
-0.00322667
-2.50946
2.51065
-0.00438391
-2.00349
2.00465
-0.00553143
-1.59981
1.60096
-0.00669483
-1.27838
1.27954
-0.00787498
-1.02331
1.02449
-0.00906014
-0.821894
0.82308
-0.0102403
-0.6639
0.665081
-0.0114187
-0.54103
0.542208
-0.0126022
-0.446818
0.448002
-0.013808
-0.376263
0.37747
-0.0150693
-0.325776
0.327038
-0.0164082
-0.292438
0.293777
-0.273915
0.275429
-0.0179216
2.19191
-1217.48
1.82026
-1007.92
1.51245
-834.512
1.25778
-690.947
1.04696
-572.121
0.872436
-473.773
0.727932
-392.384
0.608259
-325.042
0.509116
-269.336
0.426951
-223.271
0.358816
-185.199
0.302271
-153.757
0.255295
-127.82
0.216206
-106.458
0.183612
-88.906
0.15635
-74.5361
0.133453
-62.8329
0.114105
-53.377
0.0976242
-45.8299
0.0834157
-39.9214
0.070978
-35.4419
0.0598547
-32.232
0.0496653
-30.1833
0.04014
-29.2241
0.0309885
-29.2294
0.0237293
-23.436
0.0181258
-18.789
0.0138529
-15.0569
0.010565
-12.0586
0.0079733
-9.65104
0.00586059
-7.71891
0.00407005
-6.16977
0.00247345
-4.92879
0.000999808
-3.93601
-0.000404505
-3.14162
-0.00182291
-2.50804
-0.00326892
-2.00204
-0.00476228
-1.59832
-0.00632752
-1.27681
-0.00795363
-1.02168
-0.00961285
-0.820235
-0.0112815
-0.662232
-0.0129548
-0.539356
-0.0146421
-0.445131
-0.0163541
-0.374551
-0.0181174
-0.324013
-0.0199693
-0.290585
-0.271875
-0.0220087
2.22121
-1217.02
1.84461
-1007.54
1.53246
-834.2
1.27403
-690.688
1.05998
-571.906
0.882687
-473.595
0.735834
-392.237
0.614172
-324.921
0.513362
-269.235
0.4298
-223.188
0.360505
-185.13
0.303004
-153.7
0.255247
-127.772
0.21553
-106.418
0.182443
-88.873
0.154805
-74.5084
0.13164
-62.8097
0.112122
-53.3575
0.0955618
-45.8133
0.0813616
-39.9072
0.0690164
-35.4295
0.0580641
-32.2211
0.048119
-30.1733
0.038909
-29.2149
0.0301305
-29.2206
0.023087
-23.4289
0.0176203
-18.7835
0.0134533
-15.0528
0.0102552
-12.0554
0.00773098
-9.64852
0.00565057
-7.71683
0.00384344
-6.16796
0.00216672
-4.92712
0.000543673
-3.93439
-0.00107992
-3.14
-0.00279627
-2.50632
-0.00461236
-2.00023
-0.00654192
-1.59639
-0.00860497
-1.27475
-0.0107726
-1.01952
-0.0129949
-0.818012
-0.015228
-0.659998
-0.0174527
-0.537131
-0.0196785
-0.442905
-0.0219023
-0.372327
-0.0241355
-0.321779
-0.0264206
-0.2883
-0.269462
-0.028834
2.25253
-1216.56
1.87055
-1007.16
1.55373
-833.883
1.29127
-690.426
1.07377
-571.689
0.89355
-473.415
0.744213
-392.088
0.620462
-324.797
0.517892
-269.132
0.432863
-223.103
0.362348
-185.06
0.303841
-153.641
0.255259
-127.724
0.214875
-106.378
0.181256
-88.8393
0.153208
-74.4804
0.129738
-62.7862
0.110012
-53.3378
0.0933325
-45.7966
0.0790951
-39.8929
0.0667892
-35.4172
0.0559466
-32.2102
0.0461716
-30.1636
0.037183
-29.2059
0.0286638
-29.2121
0.0217451
-23.422
0.0163417
-18.7781
0.0122227
-15.0487
0.00907048
-12.0522
0.00658259
-9.64604
0.00451396
-7.71476
0.00267878
-6.16613
0.000918416
-4.92536
-0.000849428
-3.93262
-0.00268085
-3.13817
-0.00467005
-2.50433
-0.00681845
-1.99808
-0.00912887
-1.59408
-0.0116108
-1.27227
-0.0142141
-1.01691
-0.0168656
-0.815361
-0.0194996
-0.657364
-0.0220805
-0.53455
-0.0246094
-0.440376
-0.027067
-0.369869
-0.0294489
-0.319398
-0.0317755
-0.285973
-0.267142
-0.0340954
2.28599
-1216.09
1.89824
-1006.77
1.57647
-833.561
1.3098
-690.159
1.08871
-571.468
0.905468
-473.232
0.753585
-391.936
0.627693
-324.671
0.523335
-269.028
0.436814
-223.016
0.36506
-184.988
0.305526
-153.582
0.256099
-127.674
0.215025
-106.337
0.180849
-88.8052
0.152356
-74.4519
0.128541
-62.7624
0.108558
-53.3178
0.0916991
-45.7798
0.0773515
-39.8786
0.0649967
-35.4048
0.0541572
-32.1994
0.044425
-30.1538
0.035505
-29.197
0.027066
-29.2037
0.0201406
-23.4151
0.0147018
-18.7727
0.0105551
-15.0445
0.00739198
-12.0491
0.00490059
-9.64355
0.00282014
-7.71268
0.000949138
-6.16426
-0.000885767
-4.92352
-0.00277136
-3.93074
-0.00476678
-3.13617
-0.00696026
-2.50214
-0.00934776
-1.99569
-0.0119168
-1.59151
-0.0146597
-1.26952
-0.0175046
-1.01407
-0.0203565
-0.812509
-0.0231308
-0.65459
-0.0257776
-0.531903
-0.0282846
-0.437868
-0.0306245
-0.367529
-0.0327791
-0.317243
-0.0347357
-0.284016
-0.265361
-0.0365159
2.32187
-1215.62
1.92807
-1006.37
1.60114
-833.234
1.33009
-689.888
1.10532
-571.243
0.918967
-473.046
0.764481
-391.782
0.636411
-324.543
0.530233
-268.922
0.442195
-222.928
0.369181
-184.915
0.308603
-153.521
0.258314
-127.624
0.216531
-106.295
0.181777
-88.7704
0.152817
-74.4229
0.12863
-62.7382
0.108356
-53.2975
0.0912777
-45.7627
0.0767715
-39.8641
0.0643106
-35.3924
0.0534042
-32.1885
0.043631
-30.1441
0.0346772
-29.188
0.0261967
-29.1952
0.0191729
-23.4081
0.0136281
-18.7671
0.00940003
-15.0403
0.00618628
-12.0458
0.0036646
-9.64103
0.00155717
-7.71057
-0.000353749
-6.16235
-0.00225558
-4.92162
-0.00423911
-3.92875
-0.00636653
-3.13405
-0.00871481
-2.49979
-0.0112728
-1.99314
-0.014009
-1.58877
-0.0168927
-1.26664
-0.0198301
-1.01113
-0.0227066
-0.809632
-0.0254229
-0.651873
-0.0279201
-0.529406
-0.0301779
-0.43561
-0.0321706
-0.365536
-0.0338727
-0.31554
-0.0352473
-0.282641
-0.264316
-0.0362922
2.36022
-1215.13
1.95997
-1005.97
1.62756
-832.902
1.3519
-689.613
1.12325
-571.014
0.933638
-472.856
0.776421
-391.625
0.64607
-324.412
0.53799
-268.814
0.448369
-222.838
0.374039
-184.84
0.31237
-153.46
0.261179
-127.573
0.218653
-106.252
0.183289
-88.735
0.153832
-74.3935
0.129244
-62.7136
0.108651
-53.2769
0.091323
-45.7453
0.0766257
-39.8494
0.0640206
-35.3798
0.0530038
-32.1774
0.0431364
-30.1342
0.0340823
-29.179
0.0254768
-29.1866
0.0182839
-23.4009
0.012575
-18.7614
0.00821948
-15.0359
0.00492133
-12.0425
0.00234694
-9.63846
0.000199763
-7.70843
-0.00175567
-6.1604
-0.00372081
-4.91966
-0.00579097
-3.92668
-0.00802934
-3.13181
-0.0104993
-2.49733
-0.0131793
-1.99046
-0.0160149
-1.58594
-0.0189478
-1.26371
-0.0218631
-1.00821
-0.0246298
-0.806865
-0.0271405
-0.649362
-0.0293357
-0.52721
-0.0311972
-0.433749
-0.0327125
-0.364021
-0.033856
-0.314397
-0.0345813
-0.281916
-0.264029
-0.0348681
2.40114
-1214.64
1.99404
-1005.57
1.65583
-832.564
1.37529
-689.332
1.14253
-570.782
0.949492
-472.663
0.789406
-391.464
0.656661
-324.28
0.546588
-268.704
0.455308
-222.747
0.379599
-184.765
0.316787
-153.397
0.264651
-127.521
0.221343
-106.209
0.185336
-88.699
0.155352
-74.3635
0.130335
-62.6886
0.109395
-53.256
0.0917889
-45.7277
0.0768696
-39.8344
0.0640862
-35.367
0.0529191
-32.1663
0.0429082
-30.1242
0.0336909
-29.1698
0.0248795
-29.1778
0.017446
-23.3934
0.0115118
-18.7555
0.00698059
-15.0314
0.00356253
-12.0391
0.000912159
-9.63581
-0.00128771
-7.70623
-0.00329196
-6.15839
-0.00531643
-4.91763
-0.0074613
-3.92454
-0.00978728
-3.12948
-0.012344
-2.49477
-0.0150954
-1.98771
-0.0179608
-1.58307
-0.0208514
-1.26082
-0.0236343
-1.00543
-0.0261692
-0.80433
-0.0283502
-0.64718
-0.030128
-0.525432
-0.0314991
-0.432377
-0.0324724
-0.363048
-0.0330301
-0.313839
-0.0331275
-0.281819
-0.264422
-0.0327338
2.44474
-1214.14
2.03036
-1005.15
1.68601
-832.219
1.40032
-689.046
1.16325
-570.545
0.966597
-472.466
0.803503
-391.301
0.66825
-324.144
0.556092
-268.592
0.463079
-222.654
0.385931
-184.688
0.321925
-153.333
0.268799
-127.467
0.224673
-106.165
0.187989
-88.6624
0.157447
-74.333
0.13197
-62.6631
0.110653
-53.2347
0.0927382
-45.7098
0.0775629
-39.8193
0.0645622
-35.354
0.0531979
-32.1549
0.0429869
-30.114
0.0335339
-29.1603
0.0244229
-29.1687
0.0166667
-23.3857
0.0104379
-18.7492
0.00567568
-15.0266
0.00209721
-12.0356
-0.000655527
-9.63306
-0.00292213
-7.70397
-0.00497895
-6.15634
-0.00705602
-4.91556
-0.00925889
-3.92234
-0.0116408
-3.1271
-0.0142396
-2.49217
-0.0170009
-1.98495
-0.0198152
-1.58026
-0.0225643
-1.25807
-0.0251035
-1.00289
-0.0272933
-0.80214
-0.0290423
-0.645431
-0.0303223
-0.524152
-0.031156
-0.431544
-0.0315765
-0.362627
-0.0315811
-0.313834
-0.0311286
-0.282271
-0.265364
-0.0301859
2.49114
-1213.63
2.06905
-1004.73
1.71822
-831.868
1.42709
-688.755
1.18548
-570.303
0.98505
-472.266
0.818808
-391.135
0.680941
-324.007
0.566607
-268.477
0.471789
-222.559
0.393143
-184.609
0.327895
-153.268
0.273738
-127.413
0.228756
-106.12
0.191362
-88.625
0.16023
-74.3018
0.134263
-62.6371
0.112537
-53.2129
0.0942783
-45.6915
0.0788082
-39.8038
0.0655456
-35.3407
0.0539311
-32.1433
0.0434539
-30.1035
0.0336811
-29.1505
0.0241628
-29.1592
0.0159904
-23.3775
0.00938826
-18.7426
0.00433259
-15.0216
0.000547881
-12.0318
-0.00233683
-9.63017
-0.00468537
-7.70162
-0.00679795
-6.15422
-0.00891789
-4.91344
-0.0111566
-3.9201
-0.0135545
-3.12471
-0.0161407
-2.48959
-0.0188406
-1.98225
-0.0215155
-1.57758
-0.0240222
-1.25556
-0.026214
-1.0007
-0.0279654
-0.800388
-0.0292117
-0.644185
-0.0299562
-0.523407
-0.0302516
-0.431249
-0.0301576
-0.36272
-0.029683
-0.314309
-0.0287924
-0.28316
-0.266704
-0.0274518
2.54045
-1213.12
2.11021
-1004.3
1.75253
-831.511
1.45569
-688.458
1.20932
-570.057
1.00494
-472.062
0.835416
-390.966
0.694823
-323.866
0.578232
-268.361
0.48154
-222.463
0.401341
-184.529
0.334802
-153.201
0.279574
-127.358
0.233701
-106.074
0.195564
-88.5868
0.163811
-74.2701
0.137321
-62.6106
0.115151
-53.1908
0.0965111
-45.6729
0.0807033
-39.788
0.0671281
-35.3272
0.0552023
-32.1314
0.0443834
-30.0927
0.0341942
-29.1404
0.0241461
-29.1491
0.0154515
-23.3688
0.00838744
-18.7356
0.0029679
-15.0162
-0.00107458
-12.0277
-0.00412451
-9.62713
-0.00657194
-7.69917
-0.00874282
-6.15205
-0.0108928
-4.91129
-0.0131398
-3.91785
-0.0155058
-3.12234
-0.0180165
-2.48708
-0.0205767
-1.97969
-0.0230214
-1.57514
-0.0251909
-1.25339
-0.0269487
-0.998942
-0.0281966
-0.799139
-0.0289066
-0.643474
-0.0291194
-0.523195
-0.0289156
-0.431452
-0.0283784
-0.363258
-0.0275216
-0.315165
-0.0263152
-0.284367
-0.2683
-0.0247192
2.59281
-1212.59
2.15394
-1003.86
1.78905
-831.146
1.48621
-688.156
1.23487
-569.805
1.02637
-471.853
0.853426
-390.793
0.710007
-323.723
0.591075
-268.242
0.492445
-222.364
0.410638
-184.447
0.342766
-153.133
0.286428
-127.302
0.239629
-106.027
0.200717
-88.5479
0.16831
-74.2377
0.141263
-62.5836
0.118614
-53.1681
0.0995507
-45.6538
0.0833571
-39.7718
0.069412
-35.3132
0.0571054
-32.1191
0.0458584
-30.0815
0.0351439
-29.1296
0.0244259
-29.1384
0.0150898
-23.3595
0.00746443
-18.7279
0.00160214
-15.0103
-0.00275601
-12.0234
-0.00600848
-9.62387
-0.0085735
-7.69661
-0.0108046
-6.14982
-0.0129688
-4.90912
-0.0151913
-3.91563
-0.0174714
-3.12006
-0.0198371
-2.48471
-0.022176
-1.97735
-0.024303
-1.57301
-0.0260532
-1.25164
-0.0273141
-0.997681
-0.0280259
-0.798427
-0.0282027
-0.643297
-0.0279211
-0.523477
-0.0272861
-0.432087
-0.0263927
-0.364151
-0.025258
-0.316299
-0.0238471
-0.285778
-0.270033
-0.0221147
2.64835
-1212.05
2.20038
-1003.41
1.8279
-830.773
1.51878
-687.846
1.26224
-569.549
1.04944
-471.64
0.872951
-390.616
0.726606
-323.576
0.605256
-268.12
0.504627
-222.263
0.421165
-184.364
0.351918
-153.064
0.294435
-127.244
0.246678
-105.979
0.206958
-88.5082
0.173864
-74.2046
0.146225
-62.5559
0.123056
-53.1449
0.103525
-45.6343
0.0868915
-39.7551
0.072512
-35.2988
0.0597457
-32.1063
0.0479728
-30.0697
0.0366085
-29.1183
0.025063
-29.1269
0.0149513
-23.3494
0.0066536
-18.7196
0.000260373
-15.0039
-0.00447799
-12.0186
-0.00797511
-9.62038
-0.0106785
-7.69391
-0.0129712
-6.14753
-0.0151311
-4.90697
-0.0172916
-3.91347
-0.0194279
-3.11793
-0.0215756
-2.48256
-0.0236121
-1.97531
-0.0253419
-1.57128
-0.0266096
-1.25037
-0.0273383
-0.996951
-0.027513
-0.798252
-0.0271904
-0.643621
-0.0264761
-0.52419
-0.0254909
-0.433072
-0.0243318
-0.36531
-0.0230131
-0.317618
-0.0214909
-0.287299
-0.271811
-0.0197112
2.7072
-1211.5
2.24963
-1002.96
1.86918
-830.393
1.55348
-687.531
1.29153
-569.287
1.07427
-471.423
0.894116
-390.436
0.74475
-323.427
0.620913
-267.997
0.51823
-222.161
0.433068
-184.278
0.36241
-152.993
0.303749
-127.186
0.255002
-105.931
0.214443
-88.4676
0.18063
-74.1708
0.152363
-62.5277
0.128632
-53.1212
0.108582
-45.6142
0.0914495
-39.738
0.0765629
-35.2839
0.0632473
-32.093
0.0508376
-30.0573
0.0386837
-29.1061
0.0261327
-29.1143
0.0150955
-23.3383
0.00600196
-18.7105
-0.00102021
-14.9969
-0.00621085
-12.0134
-0.00999972
-9.61659
-0.0128649
-7.69104
-0.0152201
-6.14517
-0.0173551
-4.90483
-0.0194121
-3.91141
-0.0213458
-3.11599
-0.0232036
-2.48071
-0.024861
-1.97366
-0.0261272
-1.57002
-0.026871
-1.24963
-0.0270598
-0.996763
-0.0267244
-0.798588
-0.025957
-0.644388
-0.0248851
-0.525262
-0.0236313
-0.434326
-0.0222898
-0.36665
-0.0208653
-0.319042
-0.0193013
-0.288861
-0.273574
-0.0175366
2.76952
-1210.93
2.30184
-1002.49
1.91303
-830.004
1.59047
-687.208
1.32288
-569.019
1.101
-471.201
0.917062
-390.252
0.764594
-323.274
0.638205
-267.87
0.533419
-222.056
0.44652
-184.191
0.374418
-152.921
0.314551
-127.126
0.264786
-105.881
0.22336
-88.4262
0.188794
-74.1362
0.159859
-62.4987
0.135522
-53.0969
0.114899
-45.5936
0.0972003
-39.7203
0.0817251
-35.2685
0.0677601
-32.079
0.0545882
-30.0441
0.0414869
-29.093
0.0277315
-29.1006
0.015602
-23.3262
0.00557568
-18.7005
-0.0021839
-14.9891
-0.00790689
-12.0077
-0.0120402
-9.61246
-0.0150932
-7.68799
-0.0175123
-6.14276
-0.0196
-4.90274
-0.0215092
-3.90951
-0.0231849
-3.11432
-0.0246866
-2.4792
-0.0258963
-1.97245
-0.0266485
-1.56926
-0.0268505
-1.24943
-0.0265164
-0.997096
-0.0257182
-0.799386
-0.0245734
-0.645532
-0.0232198
-0.526615
-0.0217728
-0.435772
-0.0203175
-0.368106
-0.0188466
-0.320512
-0.0172945
-0.290414
-0.275284
-0.0155859
2.83544
-1210.36
2.35713
-1002.01
1.95956
-829.606
1.62983
-686.878
1.35638
-568.746
1.12973
-470.974
0.941903
-390.064
0.786249
-323.119
0.657251
-267.741
0.550322
-221.949
0.461652
-184.103
0.388079
-152.848
0.32698
-127.065
0.276172
-105.83
0.233849
-88.3839
0.198497
-74.1008
0.168855
-62.4691
0.143861
-53.0719
0.122605
-45.5723
0.104266
-39.702
0.0881108
-35.2523
0.0733829
-32.0643
0.059308
-30.0301
0.0450827
-29.0788
0.0299001
-29.0854
0.0164927
-23.3128
0.00538217
-18.6894
-0.00323483
-14.9805
-0.00957914
-12.0014
-0.014116
-9.60792
-0.0173865
-7.68472
-0.0198717
-6.14027
-0.0218886
-4.90073
-0.0236043
-3.90779
-0.0249731
-3.11295
-0.0260632
-2.47811
-0.0267688
-1.97174
-0.026974
-1.56906
-0.0266366
-1.24976
-0.0258157
-0.997918
-0.0246135
-0.800589
-0.0231618
-0.646983
-0.0215962
-0.52818
-0.0200206
-0.437347
-0.0185038
-0.369622
-0.017033
-0.321983
-0.0155233
-0.291923
-0.276914
-0.0138933
2.90512
-1209.77
2.41563
-1001.52
2.0089
-829.2
1.6717
-686.541
1.3922
-568.466
1.16063
-470.743
0.968799
-389.872
0.809895
-322.96
0.67824
-267.609
0.569134
-221.84
0.478668
-184.012
0.403603
-152.773
0.341252
-127.002
0.289378
-105.778
0.246131
-88.3406
0.209959
-74.0647
0.179568
-62.4387
0.153865
-53.0461
0.13191
-45.5504
0.112849
-39.6829
0.0959116
-35.2354
0.0802939
-32.0487
0.0651585
-30.0149
0.0496115
-29.0633
0.0327542
-29.0685
0.017864
-23.2979
0.0055025
-18.677
-0.00410372
-14.9709
-0.0111676
-11.9943
-0.0161737
-9.60292
-0.0196959
-7.6812
-0.0222511
-6.13772
-0.024174
-4.8988
-0.0256519
-3.90631
-0.0266728
-3.11193
-0.0273109
-2.47748
-0.0274716
-1.97158
-0.0271149
-1.56941
-0.0262591
-1.25062
-0.0250001
-0.999176
-0.0234576
-0.802131
-0.0217653
-0.648676
-0.0200489
-0.529896
-0.0183943
-0.439001
-0.0168552
-0.371161
-0.0154125
-0.323425
-0.0139653
-0.29337
-0.278454
-0.012425
2.97874
-1209.16
2.47751
-1001.02
2.06119
-828.783
1.71624
-686.196
1.43047
-568.181
1.19384
-470.506
0.997921
-389.677
0.835703
-322.798
0.701356
-267.475
0.590048
-221.729
0.49777
-183.92
0.421199
-152.696
0.35758
-126.939
0.304621
-105.725
0.260425
-88.2964
0.223401
-74.0276
0.192217
-62.4075
0.165748
-53.0197
0.143022
-45.5276
0.123148
-39.663
0.105314
-35.2175
0.0886655
-32.032
0.0722934
-29.9986
0.0552055
-29.0462
0.0363988
-29.0497
0.0197997
-23.2813
0.00600458
-18.6632
-0.00473537
-14.9601
-0.012627
-11.9864
-0.0181758
-9.59737
-0.0219887
-7.67738
-0.0246206
-6.13508
-0.0264284
-4.897
-0.027632
-3.90511
-0.0282721
-3.11129
-0.0284279
-2.47732
-0.0280221
-1.97199
-0.0271076
-1.57033
-0.0257686
-1.25196
-0.0241274
-1.00082
-0.0223072
-0.803951
-0.0204329
-0.65055
-0.0186143
-0.531715
-0.0169178
-0.440698
-0.0153822
-0.372696
-0.013985
-0.324822
-0.01261
-0.294745
-0.279901
-0.0111626
3.05645
-1208.54
2.54291
-1000.51
2.1166
-828.357
1.76359
-685.843
1.47135
-567.888
1.22953
-470.264
1.02944
-389.476
0.863863
-322.632
0.726796
-267.338
0.613273
-221.615
0.519175
-183.826
0.441092
-152.618
0.376196
-126.874
0.322138
-105.671
0.27697
-88.2513
0.239059
-73.9897
0.207037
-62.3754
0.179742
-52.9924
0.156166
-45.504
0.135378
-39.6422
0.116522
-35.1987
0.0986843
-32.0142
0.0808801
-29.9808
0.0620079
-29.0273
0.0409484
-29.0287
0.0223928
-23.2627
0.00696418
-18.6478
-0.00506726
-14.9481
-0.0139054
-11.9776
-0.0200783
-9.5912
-0.0242273
-7.67324
-0.0269469
-6.13237
-0.0286242
-4.89532
-0.0295297
-3.9042
-0.0297619
-3.11106
-0.0294058
-2.47768
-0.0284338
-1.97296
-0.026987
-1.57178
-0.0252121
-1.25373
-0.023247
-1.00278
-0.0212066
-0.805991
-0.0191992
-0.652557
-0.0173157
-0.533598
-0.0156026
-0.442411
-0.0140857
-0.374213
-0.012742
-0.326166
-0.0114429
-0.296044
-0.281256
-0.0100871
3.13846
-1207.91
2.61201
-999.98
2.17526
-827.92
1.8139
-685.482
1.515
-567.589
1.26787
-470.017
1.06354
-389.272
0.894573
-322.463
0.754775
-267.198
0.639035
-221.499
0.543119
-183.73
0.463525
-152.538
0.397349
-126.808
0.342181
-105.616
0.296021
-88.2051
0.257191
-73.9509
0.224282
-62.3425
0.196095
-52.9642
0.171583
-45.4795
0.149771
-39.6204
0.129753
-35.1786
0.110552
-31.995
0.0910987
-29.9613
0.0701731
-29.0064
0.0465278
-29.005
0.0257447
-23.242
0.0084651
-18.6305
-0.00502949
-14.9346
-0.014944
-11.9677
-0.0218314
-9.58431
-0.0263688
-7.66869
-0.0291932
-6.12954
-0.0307337
-4.89378
-0.0313286
-3.90361
-0.0311307
-3.11125
-0.0302416
-2.47857
-0.0287237
-1.97448
-0.0267877
-1.57371
-0.0246318
-1.25589
-0.0223994
-1.00502
-0.0201887
-0.808202
-0.0180873
-0.654659
-0.0161656
-0.53552
-0.0144524
-0.444124
-0.0129614
-0.375704
-0.0116744
-0.327454
-0.0104476
-0.297269
-0.282522
-0.00918065
3.22495
-1207.26
2.68497
-999.44
2.23735
-827.473
1.86735
-685.112
1.56159
-567.284
1.30905
-469.765
1.10043
-389.064
0.928047
-322.291
0.785517
-267.056
0.667571
-221.381
0.569851
-183.632
0.488756
-152.457
0.421305
-126.74
0.365021
-105.56
0.317851
-88.1579
0.278069
-73.9111
0.244223
-62.3087
0.215075
-52.935
0.189533
-45.454
0.166574
-39.5975
0.14524
-35.1573
0.124483
-31.9742
0.103141
-29.94
0.0798673
-28.9831
0.0532711
-28.9784
0.0299655
-23.2187
0.0105989
-18.6111
-0.00454476
-14.9195
-0.0156768
-11.9565
-0.0233791
-9.57661
-0.0283654
-7.66371
-0.0313197
-6.12659
-0.0327291
-4.89237
-0.0330094
-3.90333
-0.0323651
-3.1119
-0.0309421
-2.47999
-0.0289148
-1.9765
-0.0265445
-1.57608
-0.0240649
-1.25837
-0.0216173
-1.00746
-0.0192775
-0.810542
-0.0171114
-0.656825
-0.0151681
-0.537464
-0.0134619
-0.445831
-0.0119966
-0.377171
-0.0107539
-0.328697
-0.00959217
-0.298434
-0.283716
-0.00840047
3.31611
-1206.59
2.76197
-998.886
2.30303
-827.014
1.9241
-684.733
1.61132
-566.971
1.35326
-469.507
1.14031
-388.851
0.96451
-322.115
0.819263
-266.911
0.699133
-221.261
0.599634
-183.533
0.51706
-152.375
0.448344
-126.671
0.390944
-105.502
0.342749
-88.1097
0.301983
-73.8703
0.267148
-62.2738
0.236962
-52.9048
0.210287
-45.4273
0.18605
-39.5732
0.16323
-35.1345
0.140704
-31.9517
0.117213
-29.9165
0.0912659
-28.9572
0.0613214
-28.9485
0.0351734
-23.1925
0.0134647
-18.5894
-0.00352851
-14.9025
-0.0160314
-11.944
-0.024659
-9.56798
-0.0301644
-7.6582
-0.0332843
-6.12347
-0.03458
-4.89107
-0.0345487
-3.90336
-0.0334555
-3.11299
-0.0315267
-2.48192
-0.0290382
-1.97899
-0.0262919
-1.57883
-0.0235444
-1.26112
-0.0209263
-1.01008
-0.0184901
-0.812978
-0.0162798
-0.659035
-0.0143268
-0.539417
-0.0126319
-0.447526
-0.0111896
-0.378613
-0.00998751
-0.3299
-0.00887018
-0.29955
-0.284852
-0.0077325
3.41216
-1205.9
2.8432
-998.317
2.3725
-826.543
1.98434
-684.345
1.66437
-566.651
1.40072
-469.243
1.18341
-388.633
1.0042
-321.936
0.856262
-266.763
0.733988
-221.139
0.632746
-183.432
0.548722
-152.291
0.478762
-126.601
0.42025
-105.444
0.371018
-88.0605
0.329235
-73.8285
0.293356
-62.2379
0.262051
-52.8735
0.234133
-45.3993
0.208472
-39.5476
0.183981
-35.11
0.159455
-31.9272
0.133526
-29.8906
0.104554
-28.9282
0.0708295
-28.9148
0.0414941
-23.1632
0.017169
-18.5651
-0.00188954
-14.8834
-0.0159283
-11.93
-0.025603
-9.55831
-0.0317088
-7.6521
-0.0350427
-6.12013
-0.0362536
-4.88986
-0.0359249
-3.90369
-0.0344044
-3.11451
-0.0320196
-2.4843
-0.0291254
-1.98189
-0.0260613
-1.58189
-0.0230955
-1.26408
-0.0203456
-1.01283
-0.0178377
-0.815486
-0.015598
-0.661276
-0.0136391
-0.541375
-0.0119538
-0.449212
-0.0105292
-0.380038
-0.00935148
-0.331078
-0.00827068
-0.300634
-0.285951
-0.0071752
3.51333
-1205.19
2.92887
-997.732
2.44593
-826.06
2.04826
-683.947
1.72094
-566.324
1.45162
-468.974
1.22995
-388.412
1.04735
-321.753
0.896777
-266.612
0.77241
-221.015
0.669475
-183.329
0.584042
-152.205
0.512864
-126.53
0.453252
-105.384
0.402973
-88.0102
0.360141
-73.7857
0.32316
-62.2009
0.29065
-52.841
0.261369
-45.37
0.234126
-39.5203
0.207762
-35.0836
0.180983
-31.9004
0.152303
-29.8619
0.119923
-28.8958
0.0819532
-28.8768
0.0490596
-23.1303
0.0218245
-18.5379
0.000469683
-14.8621
-0.0152828
-11.9142
-0.0261377
-9.54745
-0.0329375
-7.64529
-0.0365476
-6.11652
-0.0377168
-4.88869
-0.0371234
-3.90428
-0.0352202
-3.11642
-0.0324407
-2.48708
-0.0292025
-1.98512
-0.0258769
-1.58522
-0.0227383
-1.26722
-0.0198875
-1.01568
-0.0173292
-0.818044
-0.0150699
-0.663535
-0.0131113
-0.543334
-0.0114362
-0.450887
-0.0100279
-0.381447
-0.00887051
-0.332235
-0.00781332
-0.301691
-0.287015
-0.00674893
3.61984
-1204.47
3.01918
-997.132
2.52353
-825.564
2.11606
-683.54
1.78123
-565.989
1.5062
-468.699
1.28016
-388.186
1.09423
-321.567
0.941075
-266.459
0.814681
-220.888
0.710116
-183.224
0.623325
-152.118
0.550966
-126.458
0.490269
-105.324
0.438937
-87.9589
0.395025
-73.7418
0.356881
-62.1628
0.323073
-52.8072
0.292299
-45.3393
0.263303
-39.4913
0.234848
-35.0552
0.205541
-31.8711
0.173772
-29.8301
0.13757
-28.8596
0.0948547
-28.8341
0.0580072
-23.0934
0.0275491
-18.5074
0.00365194
-14.8382
-0.0140045
-11.8966
-0.0261846
-9.53527
-0.0337856
-7.63769
-0.0377506
-6.11256
-0.0389379
-4.88751
-0.0381328
-3.90509
-0.0359106
-3.11864
-0.032806
-2.49019
-0.0292896
-1.98864
-0.025757
-1.58875
-0.0224853
-1.27049
-0.0195595
-1.01861
-0.0169653
-0.820639
-0.0146935
-0.665806
-0.0127355
-0.545293
-0.0110687
-0.452553
-0.00967208
-0.382844
-0.00852384
-0.333383
-0.00747938
-0.302736
-0.288062
-0.00643304
3.73194
-1203.72
3.11435
-996.514
2.60551
-825.056
2.18795
-683.122
1.84547
-565.646
1.56467
-468.418
1.3343
-387.955
1.14509
-321.378
0.989429
-266.303
0.86109
-220.76
0.754969
-183.118
0.666881
-152.03
0.593384
-126.384
0.531625
-105.262
0.479235
-87.9065
0.434211
-73.6968
0.394842
-62.1234
0.359636
-52.772
0.327231
-45.3068
0.296297
-39.4604
0.265515
-35.0244
0.233385
-31.839
0.198162
-29.7949
0.157695
-28.8191
0.109698
-28.7861
0.0684768
-23.0522
0.0344647
-18.4734
0.00776416
-14.8115
-0.0119992
-11.8768
-0.0256618
-9.5216
-0.0341858
-7.62916
-0.0386017
-6.10814
-0.0398858
-4.88622
-0.0389421
-3.90603
-0.0364799
-3.1211
-0.0331274
-2.49354
-0.0294004
-1.99237
-0.0257136
-1.59244
-0.0223441
-1.27386
-0.0193646
-1.02159
-0.0167456
-0.823259
-0.0144656
-0.668086
-0.0125069
-0.547252
-0.0108437
-0.454217
-0.00945147
-0.384237
-0.00830031
-0.334534
-0.00725375
-0.303782
-0.289109
-0.00620631
3.8499
-1202.95
3.21462
-995.879
2.69211
-824.533
2.26417
-682.694
1.91392
-565.296
1.62733
-468.131
1.39266
-387.721
1.20025
-321.186
1.04218
-266.145
0.911989
-220.63
0.804401
-183.01
0.71509
-151.941
0.640507
-126.31
0.577713
-105.199
0.524267
-87.853
0.478098
-73.6506
0.437437
-62.0827
0.400729
-52.7352
0.366544
-45.2726
0.333477
-39.4273
0.300114
-34.991
0.264844
-31.8037
0.225779
-29.7558
0.180573
-28.774
0.126728
-28.7323
0.0806889
-23.0061
0.0427746
-18.4355
0.012996
-14.7817
-0.00908965
-11.8547
-0.0244037
-9.50629
-0.0339876
-7.61958
-0.0389688
-6.10316
-0.0404479
-4.88475
-0.039458
-3.90703
-0.0368477
-3.12371
-0.03333
-2.49706
-0.0294616
-1.99624
-0.02567
-1.59623
-0.0222356
-1.2773
-0.0192195
-1.0246
-0.016585
-0.825895
-0.0142989
-0.670372
-0.0123386
-0.549214
-0.0106756
-0.455879
-0.00928356
-0.38563
-0.00812273
-0.335695
-0.00706664
-0.304839
-0.290169
-0.00600782
3.97398
-1202.15
3.32023
-995.225
2.78352
-823.996
2.34491
-682.256
1.98674
-564.938
1.69434
-467.839
1.45542
-387.482
1.2599
-320.99
1.09953
-265.985
0.967598
-220.498
0.85864
-182.901
0.768187
-151.851
0.692577
-126.234
0.628778
-105.135
0.574276
-87.7985
0.526931
-73.6033
0.484907
-62.0407
0.446586
-52.6969
0.410463
-45.2365
0.375051
-39.3919
0.338838
-34.9548
0.300091
-31.765
0.256769
-29.7125
0.206323
-28.7235
0.146029
-28.672
0.0947072
-22.9548
0.0525262
-18.3933
0.0193815
-14.7485
-0.00525471
-11.8301
-0.0224018
-9.48914
-0.0331982
-7.60878
-0.0388782
-6.09748
-0.0406706
-4.88295
-0.0397456
-3.90795
-0.0370891
-3.12637
-0.0334932
-2.50066
-0.0295505
-2.00018
-0.0257026
-1.60008
-0.0222302
-1.28077
-0.0191941
-1.02764
-0.0165489
-0.82854
-0.0142594
-0.672663
-0.0122936
-0.55118
-0.0106278
-0.457546
-0.00922843
-0.387029
-0.00805131
-0.336873
-0.00697757
-0.305914
-0.29125
-0.00589728
4.10445
-1201.33
3.43139
-994.552
2.87994
-823.445
2.43036
-681.806
2.06414
-564.572
1.7659
-467.541
1.52279
-387.238
1.32425
-320.791
1.16169
-265.822
1.02813
-220.364
0.91791
-182.791
0.826402
-151.759
0.749827
-126.158
0.685059
-105.071
0.629502
-87.7429
0.580945
-73.5547
0.537486
-61.9972
0.497432
-52.6568
0.459202
-45.1983
0.421223
-39.3539
0.381874
-34.9155
0.339292
-31.7224
0.291276
-29.6645
0.23506
-28.6673
0.167688
-28.6046
0.110599
-22.8977
0.0637725
-18.3464
0.0269615
-14.7117
-0.000465532
-11.8027
-0.0196396
-9.46996
-0.0318177
-7.59661
-0.0383486
-6.09096
-0.0405931
-4.88071
-0.0398608
-3.90869
-0.0372689
-3.12897
-0.0336844
-2.50424
-0.0297343
-2.00413
-0.0258733
-1.60394
-0.0223876
-1.28426
-0.0193421
-1.03069
-0.0166914
-0.831191
-0.0143962
-0.674959
-0.0124208
-0.553155
-0.0107422
-0.459226
-0.00932402
-0.388448
-0.00811804
-0.33808
-0.00701332
-0.307019
-0.292365
-0.00589858
4.24161
-1200.49
3.54838
-993.859
2.98164
-822.878
2.52076
-681.345
2.14636
-564.197
1.84228
-467.237
1.59503
-386.991
1.39358
-320.59
1.22896
-265.658
1.0939
-220.229
0.982531
-182.68
0.890063
-151.667
0.81259
-126.08
0.74689
-105.005
0.690281
-87.6863
0.640478
-73.5049
0.595505
-61.9523
0.553594
-52.6149
0.513081
-45.1577
0.4723
-39.3131
0.429514
-34.8727
0.382723
-31.6756
0.329553
-29.6113
0.267016
-28.6047
0.191912
-28.5295
0.128554
-22.8344
0.0766921
-18.2946
0.0359062
-14.6709
0.00543601
-11.7722
-0.0159711
-9.44855
-0.0297138
-7.58286
-0.0372649
-6.0834
-0.0401189
-4.87786
-0.0397218
-3.90908
-0.0373133
-3.13138
-0.0338325
-2.50773
-0.0299414
-2.00802
-0.0261088
-1.60777
-0.022632
-1.28774
-0.0195863
-1.03373
-0.0169332
-0.833844
-0.0146314
-0.677262
-0.0126416
-0.555145
-0.0109414
-0.460928
-0.00949098
-0.389899
-0.00823988
-0.339333
-0.00708691
-0.308174
-0.293537
-0.00591685
4.38579
-1199.62
3.67148
-993.144
3.08886
-822.296
2.61636
-680.873
2.23363
-563.815
1.92369
-466.927
1.67237
-386.74
1.46812
-320.386
1.30156
-265.491
1.16514
-220.093
1.05274
-182.567
0.95941
-151.573
0.881112
-126.002
0.814518
-104.938
0.75686
-87.6287
0.705773
-73.4538
0.659204
-61.9057
0.615306
-52.571
0.572325
-45.1147
0.528496
-39.2693
0.48196
-34.8261
0.430569
-31.6242
0.37177
-29.5525
0.302339
-28.5353
0.218828
-28.446
0.148686
-22.7642
0.0913912
-18.2373
0.0463142
-14.6259
0.0125383
-11.7384
-0.0113204
-9.42469
-0.0268226
-7.56736
-0.0355786
-6.07465
-0.0392161
-4.87422
-0.039309
-3.90899
-0.0372086
-3.13348
-0.0339277
-2.51101
-0.0301622
-2.01179
-0.0264021
-1.61154
-0.0229566
-1.29118
-0.019923
-1.03677
-0.0172723
-0.836494
-0.0149671
-0.67957
-0.012966
-0.557146
-0.0112482
-0.462648
-0.00976815
-0.391379
-0.00847848
-0.340625
-0.00727937
-0.309373
-0.294759
-0.0060568
4.53731
-1198.72
3.80097
-992.408
3.20184
-821.696
2.71737
-680.388
2.32615
-563.423
2.01033
-466.611
1.75501
-386.485
1.54807
-320.179
1.37971
-265.323
1.24205
-219.955
1.12874
-182.454
1.03465
-151.479
0.955597
-125.923
0.888147
-104.871
0.829441
-87.57
0.77703
-73.4014
0.728779
-61.8575
0.682757
-52.525
0.637116
-45.0691
0.589985
-39.2222
0.539374
-34.7755
0.482981
-31.5678
0.418061
-29.4876
0.341152
-28.4584
0.248543
-28.3534
0.171095
-22.6868
0.107964
-18.1741
0.0582744
-14.5762
0.0209222
-11.7011
-0.00561938
-9.39815
-0.0230858
-7.54989
-0.033243
-6.06449
-0.0378508
-4.86961
-0.0385977
-3.90825
-0.0369367
-3.13514
-0.0339526
-2.51399
-0.0303837
-2.01536
-0.0267389
-1.61518
-0.0233524
-1.29457
-0.0203418
-1.03978
-0.0177025
-0.839135
-0.0153933
-0.681879
-0.0133797
-0.559162