/*--------------------------------*- C++ -*----------------------------------*\
  =========                 |
  \\      /  F ield         | OpenFOAM: The Open Source CFD Toolbox
   \\    /   O peration     | Website:  https://openfoam.org
    \\  /    A nd           | Version:  10
     \\/     M anipulation  |
\*---------------------------------------------------------------------------*/
FoamFile
{
    format      ascii;
    class       volVectorField;
    location    "10";
    object      U;
}
// * * * * * * * * * * * * * * * * * * * * * * * * * * * * * * * * * * * * * //

dimensions      [0 1 -1 0 0 0 0];

internalField   nonuniform List<vector> 
38016
(
(51.3106 9.03399 2.45268e-20)
(51.3082 9.03861 7.4093e-21)
(51.31 9.03652 -8.94318e-21)
(51.3099 9.03724 0)
(51.3101 9.03641 0)
(51.3104 9.03558 0)
(51.3109 9.03433 -9.472e-21)
(51.3117 9.03259 -9.35175e-17)
(51.313 9.03017 1.3754e-20)
(51.3151 9.02682 -1.65571e-20)
(51.3183 9.02222 -4.07601e-17)
(51.323 9.01594 -5.71995e-25)
(51.33 9.0074 -2.93923e-17)
(51.3399 8.99592 -3.51407e-17)
(51.3537 8.98061 2.09596e-17)
(51.3725 8.96052 0)
(51.3974 8.93448 0)
(51.4295 8.90066 0)
(51.4709 8.85674 -1.93759e-20)
(51.5238 8.80022 2.2078e-20)
(51.592 8.72605 -6.31022e-18)
(51.6774 8.63015 6.86871e-18)
(51.7884 8.5006 -7.24636e-18)
(51.9206 8.33297 2.90513e-20)
(52.1145 8.12432 -7.65462e-18)
(52.3554 7.88197 7.48822e-23)
(52.5961 7.6674 -3.13006e-18)
(52.814 7.513 3.05583e-20)
(52.9983 7.41014 3.73046e-23)
(53.1445 7.33866 0)
(53.2504 7.27465 2.91867e-23)
(53.3188 7.19675 3.7396e-20)
(53.3517 7.09053 -1.54517e-18)
(53.3551 6.93255 0)
(53.315 6.72881 0)
(53.2625 6.464 0)
(53.1673 6.1193 0)
(53.0161 5.70734 -2.88391e-19)
(52.8055 5.21728 -1.80233e-19)
(52.5381 4.65161 -7.43828e-23)
(52.2195 4.02445 -1.00729e-22)
(51.8534 3.35349 5.1549e-19)
(51.4301 2.64748 -1.04856e-19)
(50.9392 1.89501 1.2609e-19)
(50.3687 1.11048 0)
(49.7475 0.280822 0)
(49.0581 -0.663337 -7.50064e-19)
(48.2265 -1.67517 6.93599e-19)
(51.3105 9.03387 -8.03962e-16)
(51.3082 9.03857 2.96475e-20)
(51.31 9.03644 5.86274e-16)
(51.3099 9.03717 0)
(51.3101 9.03633 0)
(51.3104 9.03548 -2.57487e-16)
(51.3109 9.03419 5.92233e-22)
(51.3117 9.0324 9.35676e-17)
(51.313 9.02991 -1.12726e-16)
(51.3151 9.02645 -8.28283e-21)
(51.3182 9.02169 -4.07949e-17)
(51.323 9.01515 -1.19666e-20)
(51.3299 9.00625 2.94039e-17)
(51.3399 8.99425 3.51623e-17)
(51.3537 8.97819 -2.09684e-17)
(51.3726 8.95705 4.98e-17)
(51.3977 8.92957 2.93931e-17)
(51.4301 8.89381 -3.36044e-20)
(51.472 8.84728 7.81114e-24)
(51.5258 8.78729 4.43935e-20)
(51.5958 8.70848 1.90671e-17)
(51.6844 8.60637 -2.08077e-17)
(51.8018 8.46829 7.3734e-18)
(51.9485 8.28935 1.50238e-17)
(52.1351 8.06799 -7.59388e-18)
(52.3794 7.81097 -1.90871e-20)
(52.6214 7.5838 3.09935e-18)
(52.8383 7.4196 7.79539e-18)
(53.0195 7.3099 -4.84644e-18)
(53.162 7.23403 0)
(53.2628 7.16697 0)
(53.3252 7.08594 2.39161e-18)
(53.3513 6.9759 1.49754e-18)
(53.3464 6.81249 -1.87584e-18)
(53.2982 6.59997 0)
(53.2333 6.32385 1.4738e-18)
(53.1244 5.96721 0)
(52.9564 5.54184 2.88855e-19)
(52.7246 5.03715 -3.61083e-19)
(52.4321 4.45705 4.50052e-19)
(52.085 3.81768 -5.58672e-19)
(51.6872 3.13866 -1.72187e-19)
(51.2281 2.42958 -1.04982e-19)
(50.6962 1.67934 1.26145e-19)
(50.08 0.902538 0)
(49.4096 0.0929229 0)
(48.6661 -0.819316 -5.60582e-19)
(47.767 -1.77217 6.8999e-19)
(51.3105 9.03374 -2.68435e-23)
(51.3082 9.03852 0)
(51.31 9.03636 -1.17303e-15)
(51.3099 9.03709 0)
(51.3101 9.03624 0)
(51.3104 9.03537 2.57583e-16)
(51.3109 9.03405 -4.73967e-21)
(51.3117 9.03221 7.14149e-21)
(51.313 9.02963 1.1277e-16)
(51.315 9.02606 -8.28635e-21)
(51.3181 9.02113 8.16567e-17)
(51.3229 9.01434 9.80791e-17)
(51.3298 9.00505 -1.1759e-16)
(51.3397 8.9925 -6.87149e-20)
(51.3535 8.97565 4.09813e-20)
(51.3723 8.95341 -4.98129e-17)
(51.3972 8.92444 -2.94188e-17)
(51.4295 8.88664 -5.42118e-24)
(51.4712 8.83741 -3.89671e-20)
(51.5248 8.77385 0)
(51.5945 8.69032 -3.82168e-17)
(51.6829 8.58199 1.39121e-17)
(51.8002 8.43551 -1.47757e-17)
(51.9476 8.2453 -3.01842e-17)
(52.1334 8.00965 8.23742e-22)
(52.3778 7.73765 0)
(52.6196 7.49775 1.24007e-17)
(52.8365 7.32359 -7.73799e-18)
(53.0174 7.20697 4.81052e-18)
(53.1599 7.12674 0)
(53.2605 7.05687 1.19494e-19)
(53.3222 6.97326 2.09307e-18)
(53.3463 6.86024 3.74501e-19)
(53.3381 6.69271 1.40769e-18)
(53.2859 6.47336 -2.0588e-18)
(53.2123 6.1888 -1.47466e-18)
(53.0918 5.82421 0)
(52.9081 5.39056 -1.15544e-18)
(52.6547 4.87822 3.61123e-19)
(52.3359 4.293 -4.49985e-19)
(51.9584 3.65346 1.1168e-18)
(51.5264 2.9813 -6.87407e-19)
(51.0284 2.28697 1.04709e-18)
(50.4519 1.56066 -2.50717e-19)
(49.7887 0.816785 5.15986e-22)
(49.0691 0.0560271 -1.67924e-18)
(48.2722 -0.786823 -2.97316e-23)
(47.3131 -1.63089 -1.36165e-18)
(51.3105 9.0336 2.41334e-15)
(51.3082 9.03847 0)
(51.31 9.03627 5.86658e-16)
(51.3099 9.03702 8.64385e-20)
(51.3101 9.03615 8.54421e-16)
(51.3104 9.03525 -1.57276e-20)
(51.3109 9.0339 -3.10722e-16)
(51.3117 9.032 0)
(51.3129 9.02935 -2.25639e-16)
(51.315 9.02566 0)
(51.3181 9.02054 1.6339e-16)
(51.3228 9.01348 -9.81518e-17)
(51.3296 9.00379 1.17654e-16)
(51.3395 8.99066 3.43788e-20)
(51.3532 8.97298 8.39831e-17)
(51.3719 8.94957 9.97497e-17)
(51.3967 8.91901 -5.75051e-20)
(51.4288 8.87907 6.73618e-20)
(51.4702 8.82698 0)
(51.5236 8.75968 -4.56038e-17)
(51.5929 8.67122 5.1063e-17)
(51.6809 8.55642 -2.79003e-17)
(51.7979 8.40129 4.44033e-17)
(51.9453 8.19955 1.52416e-17)
(52.1314 7.94876 1.51185e-17)
(52.376 7.66144 7.6512e-20)
(52.6181 7.40852 -9.80712e-20)
(52.8356 7.22418 -1.56092e-17)
(53.017 7.10053 9.77929e-18)
(53.1601 7.01602 0)
(53.2611 6.94376 0)
(53.3221 6.85838 -6.68321e-22)
(53.3441 6.74363 -2.99732e-18)
(53.332 6.57387 0)
(53.2741 6.35057 2.35404e-18)
(53.1897 6.06168 0)
(53.0542 5.69459 0)
(52.8504 5.25996 1.15523e-18)
(52.5703 4.74982 -7.21612e-19)
(52.2191 4.1726 -8.99673e-19)
(51.8049 3.5496 1.11523e-18)
(51.3326 2.90471 6.86127e-19)
(50.7905 2.24927 1.67008e-18)
(50.165 1.57526 -1.99917e-18)
(49.4537 0.89675 0)
(48.6877 0.221679 5.78999e-23)
(47.8465 -0.508309 -3.10837e-18)
(46.8465 -1.18678 3.07993e-18)
(51.3105 9.03346 -1.60958e-15)
(51.3082 9.03842 -1.18717e-19)
(51.31 9.03618 1.17397e-15)
(51.3098 9.03694 -7.08281e-16)
(51.3101 9.03605 -8.54747e-16)
(51.3104 9.03513 -5.1556e-16)
(51.3109 9.03374 -3.10864e-16)
(51.3116 9.03179 0)
(51.3129 9.02905 2.25739e-16)
(51.3149 9.02523 -4.14692e-21)
(51.318 9.01992 -1.63427e-16)
(51.3226 9.01258 -2.39692e-20)
(51.3295 9.00247 0)
(51.3393 8.98872 3.43973e-20)
(51.3529 8.97016 -8.40792e-17)
(51.3715 8.94553 -9.98232e-17)
(51.3961 8.91329 -5.89398e-17)
(51.428 8.87109 6.90427e-17)
(51.4692 8.816 0)
(51.5222 8.74476 9.13429e-17)
(51.5912 8.65115 -2.5579e-17)
(51.6787 8.52962 2.80216e-17)
(51.7952 8.36556 -5.94441e-17)
(51.9423 8.15202 -5.95233e-20)
(52.1288 7.88556 5.94953e-20)
(52.3733 7.58253 7.66441e-20)
(52.6156 7.31626 -2.50533e-17)
(52.8337 7.12146 1.57452e-17)
(53.0158 6.99065 -1.06484e-21)
(53.1593 6.90198 0)
(53.2603 6.82776 -2.39257e-19)
(53.3201 6.74143 -4.49156e-18)
(53.3389 6.62622 2.9996e-18)
(53.3218 6.45615 0)
(53.2562 6.23186 0)
(53.1589 5.94278 -2.94751e-18)
(53.0051 5.57862 9.22833e-19)
(52.7779 5.1503 -1.15469e-18)
(52.4676 4.65228 -1.22975e-22)
(52.0807 4.09608 1.79827e-18)
(51.6273 3.50603 -1.11472e-18)
(51.114 2.90815 -1.37095e-18)
(50.5296 2.31443 -3.33451e-18)
(49.861 1.71802 4.4874e-18)
(49.1121 1.1323 4.67231e-18)
(48.3162 0.572283 -5.31147e-18)
(47.458 -0.0150734 -3.64323e-19)
(46.4546 -0.493715 -3.84147e-19)
(51.3105 9.03331 0)
(51.3083 9.03837 0)
(51.3099 9.03609 -1.17419e-15)
(51.3098 9.03686 7.08464e-16)
(51.3101 9.03595 0)
(51.3104 9.03501 5.15763e-16)
(51.3108 9.03358 6.21998e-16)
(51.3116 9.03157 -2.28812e-20)
(51.3129 9.02874 0)
(51.3148 9.02479 0)
(51.3179 9.01928 -3.27048e-16)
(51.3225 9.01163 0)
(51.3293 9.00108 0)
(51.3391 8.98669 -1.4098e-16)
(51.3526 8.9672 -1.68184e-16)
(51.371 8.94128 9.98946e-17)
(51.3955 8.90727 5.89306e-17)
(51.4271 8.8627 -1.38083e-16)
(51.4681 8.80447 -7.82178e-20)
(51.5207 8.72912 -4.56446e-17)
(51.5892 8.63015 5.11425e-17)
(51.6762 8.50167 0)
(51.792 8.32842 2.97719e-17)
(51.9385 8.10284 0)
(52.1249 7.82038 0)
(52.369 7.50134 -7.67643e-20)
(52.6113 7.22146 3.74225e-17)
(52.8298 7.01596 -1.5633e-17)
(53.0125 6.87791 -9.7922e-18)
(53.1562 6.78516 0)
(53.2568 6.70937 -7.42096e-18)
(53.3149 6.62286 -2.99592e-19)
(53.3298 6.50837 -6.37668e-18)
(53.3067 6.33976 -2.81842e-18)
(53.2317 6.11715 -1.1769e-18)
(53.12 5.83156 6.63222e-18)
(52.9463 5.47527 -9.22913e-19)
(52.6939 5.05974 1.15506e-18)
(52.3522 4.58251 1.44414e-18)
(51.9299 4.05847 -2.70032e-18)
(51.4393 3.51491 3.34663e-18)
(50.89 2.97958 2.74447e-18)
(50.2725 2.4644 -4.16918e-18)
(49.5752 1.96211 -4.9908e-19)
(48.8076 1.4847 4.67663e-18)
(48.0077 1.0528 -4.98703e-18)
(47.1676 0.615406 3.6533e-19)
(46.2035 0.337451 3.8588e-19)
(51.3104 9.03316 -3.93246e-19)
(51.3083 9.03832 0)
(51.3099 9.036 1.17492e-15)
(51.3098 9.03678 -1.73075e-19)
(51.3101 9.03585 1.04421e-19)
(51.3104 9.03488 -1.88953e-19)
(51.3108 9.03341 -6.222e-16)
(51.3116 9.03134 7.50137e-16)
(51.3128 9.02842 0)
(51.3148 9.02432 -5.44041e-16)
(51.3178 9.0186 3.27209e-16)
(51.3224 9.01064 2.39932e-20)
(51.3291 8.99963 -2.87785e-20)
(51.3388 8.98455 1.41065e-16)
(51.3522 8.9641 1.68255e-16)
(51.3705 8.93682 -9.98709e-17)
(51.3948 8.90096 -5.76563e-20)
(51.4262 8.8539 6.91084e-17)
(51.4668 8.79239 7.83065e-20)
(51.5191 8.71277 0)
(51.5871 8.60825 -5.14277e-17)
(51.6733 8.4726 -5.60529e-17)
(51.7884 8.28997 0)
(51.9341 8.05216 0)
(52.1202 7.75346 1.19551e-19)
(52.3636 7.41823 -1.53872e-19)
(52.6056 7.12457 -2.49081e-17)
(52.8245 6.9082 1.56457e-17)
(53.0077 6.76282 1.53052e-19)
(53.1515 6.6661 -3.83004e-19)
(53.2516 6.5891 8.14445e-18)
(53.3077 6.50316 -9.59102e-18)
(53.3182 6.3905 5.62929e-18)
(53.2884 6.22509 7.51689e-18)
(53.2029 6.00666 0)
(53.0761 5.72821 -2.94792e-18)
(52.8816 5.38451 -9.23057e-19)
(52.6039 4.98775 3.46676e-18)
(52.2319 4.53911 -2.89057e-18)
(51.7769 4.0568 1.8014e-18)
(51.255 3.57058 0)
(50.6792 3.10915 6.86782e-19)
(50.0424 2.6831 1.71502e-22)
(49.335 2.28283 -3.99956e-18)
(48.5711 1.91776 9.95759e-18)
(47.7946 1.61215 1.98162e-21)
(47.0053 1.3144 -5.86813e-18)
(46.1168 1.21332 7.75972e-19)
(51.3104 9.033 3.22226e-15)
(51.3083 9.03827 -1.94699e-15)
(51.3099 9.0359 1.17495e-15)
(51.3098 9.03669 1.41829e-15)
(51.3101 9.03574 -1.18676e-25)
(51.3103 9.03475 1.2602e-19)
(51.3108 9.03323 1.24505e-15)
(51.3115 9.03109 -7.50493e-16)
(51.3128 9.02808 1.37964e-20)
(51.3147 9.02384 5.44319e-16)
(51.3177 9.0179 0)
(51.3223 9.0096 -3.93324e-16)
(51.3289 8.9981 -2.8794e-20)
(51.3385 8.98232 3.44622e-20)
(51.3518 8.96085 4.1114e-20)
(51.37 8.93215 2.00041e-16)
(51.3941 8.89436 5.76988e-20)
(51.4252 8.8447 -6.76267e-20)
(51.4655 8.77977 0)
(51.5173 8.69572 0)
(51.5847 8.58548 0)
(51.6702 8.44249 5.63872e-17)
(51.7844 8.25029 -6.25619e-23)
(51.9291 8.00009 -3.08989e-17)
(52.1146 7.68502 0)
(52.3572 7.33348 0)
(52.599 7.02592 0)
(52.8182 6.79853 1.56549e-17)
(53.002 6.64578 -1.96047e-17)
(53.1459 6.5452 1.26449e-17)
(53.2455 6.46738 6.70982e-18)
(53.2995 6.38277 1.0796e-17)
(53.3053 6.27314 5.25421e-18)
(53.2684 6.11266 -3.75871e-18)
(53.1717 5.90107 0)
(53.0296 5.63358 0)
(52.8143 5.30729 -1.84562e-18)
(52.5121 4.93521 -2.31257e-18)
(52.1125 4.52249 1.44649e-18)
(51.6301 4.09027 -1.80345e-18)
(51.0853 3.66991 4.47305e-18)
(50.4952 3.28984 -1.10023e-17)
(49.8553 2.95785 7.52656e-18)
(49.1574 2.66002 0)
(48.4187 2.40217 -9.39962e-18)
(47.689 2.21045 1.07116e-17)
(46.9747 2.03126 7.36971e-19)
(46.1854 2.07116 -7.80913e-19)
(51.3104 9.03284 -6.44845e-15)
(51.3083 9.03821 1.94824e-15)
(51.3099 9.03579 -2.35111e-15)
(51.3098 9.0366 -1.41895e-15)
(51.3101 9.03563 0)
(51.3103 9.03461 6.30366e-20)
(51.3108 9.03305 6.22702e-16)
(51.3115 9.03084 0)
(51.3127 9.02773 -9.0458e-16)
(51.3146 9.02333 0)
(51.3176 9.01716 9.99574e-21)
(51.3221 9.00852 3.93531e-16)
(51.3287 8.99651 0)
(51.3382 8.97999 0)
(51.3514 8.95745 4.11435e-20)
(51.3694 8.92727 -2.00349e-16)
(51.3933 8.88746 5.77587e-20)
(51.4241 8.8351 -1.38634e-16)
(51.464 8.76663 0)
(51.5154 8.678 0)
(51.5822 8.56187 0)
(51.6668 8.41136 -1.1011e-19)
(51.78 8.20946 1.17187e-19)
(51.9236 7.94677 3.08719e-17)
(52.1084 7.61522 0)
(52.3501 7.24732 0)
(52.5915 6.92579 2.4755e-17)
(52.8111 6.68727 -3.10868e-17)
(52.9955 6.52711 2.06836e-21)
(53.1398 6.42281 -1.22695e-17)
(53.2388 6.34459 -7.67334e-18)
(53.2907 6.26215 9.59823e-18)
(53.2915 6.15678 -6.00591e-18)
(53.2474 6.00308 0)
(53.1393 5.80112 0)
(52.9818 5.54859 7.36729e-18)
(52.7465 5.24463 -1.84552e-18)
(52.4219 4.90298 -2.31365e-18)
(51.9991 4.53282 2.89465e-18)
(51.4964 4.15749 1.80488e-18)
(50.9391 3.80871 -4.47828e-18)
(50.3484 3.51324 5.50799e-18)
(49.7217 3.2746 0)
(49.0511 3.07303 0)
(48.3549 2.91021 -1.76723e-18)
(47.6883 2.81326 0)
(47.0625 2.72667 -1.48107e-18)
(46.3821 2.86899 0)
(51.3104 9.03267 3.22504e-15)
(51.3083 9.03815 0)
(51.3099 9.03569 -2.35264e-15)
(51.3098 9.03651 -1.41936e-15)
(51.31 9.03551 -1.71274e-15)
(51.3103 9.03446 -1.26128e-19)
(51.3107 9.03286 -2.492e-15)
(51.3115 9.03058 -1.37534e-19)
(51.3127 9.02736 9.05041e-16)
(51.3146 9.02281 3.32549e-20)
(51.3175 9.0164 6.55438e-16)
(51.3219 9.0074 0)
(51.3285 8.99485 0)
(51.3379 8.97756 0)
(51.351 8.95391 -1.68658e-16)
(51.3688 8.92218 2.00465e-16)
(51.3924 8.88028 -1.18452e-16)
(51.423 8.82512 1.3885e-16)
(51.4625 8.75298 -7.85896e-20)
(51.5133 8.65962 0)
(51.5794 8.53746 1.00735e-19)
(51.6632 8.3793 -1.10383e-19)
(51.7752 8.16758 0)
(51.9176 7.89234 -6.19205e-17)
(52.1015 7.54429 1.20574e-19)
(52.3421 7.16001 -1.54462e-19)
(52.5831 6.82449 -2.49722e-17)
(52.8031 6.57477 1.45508e-21)
(52.9883 6.40719 1.93216e-17)
(53.133 6.29934 1.26581e-17)
(53.2317 6.22117 4.79668e-19)
(53.2813 6.14177 -1.02002e-17)
(53.2772 6.04191 0)
(53.2256 5.89691 0)
(53.1063 5.70749 -4.70447e-18)
(52.9339 5.47399 -5.8927e-18)
(52.6802 5.19722 3.69275e-18)
(52.3363 4.89127 2.31423e-18)
(51.8961 4.56917 -5.21511e-22)
(51.3817 4.2554 -3.61351e-18)
(50.8235 3.98054 4.48336e-18)
(50.2458 3.76848 1.6408e-21)
(49.6469 3.61734 -5.03511e-18)
(49.0176 3.50065 -1.0061e-18)
(48.3752 3.41623 1.18188e-18)
(47.7798 3.3921 -1.07942e-17)
(47.2459 3.37214 2.45393e-17)
(46.6728 3.58192 -1.26119e-17)
(51.3103 9.0325 -3.93833e-19)
(51.3083 9.03809 -3.89886e-15)
(51.3099 9.03557 4.70695e-15)
(51.3098 9.03641 1.42013e-15)
(51.31 9.03539 1.71359e-15)
(51.3103 9.03431 1.26184e-19)
(51.3107 9.03266 1.24661e-15)
(51.3114 9.03031 9.17327e-20)
(51.3126 9.02698 -2.76324e-20)
(51.3145 9.02226 3.32723e-20)
(51.3174 9.0156 -9.73337e-22)
(51.3218 9.00623 7.51508e-22)
(51.3283 8.99313 0)
(51.3376 8.97503 -2.82843e-16)
(51.3505 8.95023 1.68746e-16)
(51.3682 8.9169 -2.00589e-16)
(51.3915 8.87281 1.18508e-16)
(51.4217 8.81476 1.38933e-16)
(51.4608 8.73884 7.86714e-20)
(51.5111 8.64063 -2.57818e-23)
(51.5765 8.51231 -3.62543e-23)
(51.6592 8.34638 5.6399e-17)
(51.7701 8.12476 1.17754e-19)
(51.9111 7.83698 6.20963e-17)
(52.0939 7.47247 0)
(52.3333 7.07186 -1.5451e-19)
(52.5737 6.72238 1.9531e-19)
(52.7942 6.46143 -1.59277e-17)
(52.9803 6.28645 3.06911e-19)
(53.1257 6.17521 -1.40536e-21)
(53.224 6.09757 1.53533e-17)
(53.2716 6.02207 -1.01991e-17)
(53.2626 5.92904 7.50641e-19)
(53.2036 5.79474 -8.45191e-18)
(53.0738 5.62078 5.87849e-18)
(52.8875 5.4103 0)
(52.6176 5.16524 0)
(52.2587 4.89953 2.31466e-18)
(51.808 4.62942 -2.89847e-18)
(51.2914 4.37931 1.32833e-21)
(50.7436 4.17726 -1.12179e-17)
(50.1912 4.04337 5.52263e-18)
(49.6315 3.96994 -1.68145e-18)
(49.0524 3.92364 1.00846e-18)
(48.4689 3.8994 9.47869e-18)
(47.9454 3.92669 -1.08253e-17)
(47.499 3.95071 0)
(47.0242 4.19977 -1.26547e-17)
(51.3103 9.03232 -6.45508e-15)
(51.3084 9.03803 -3.90069e-15)
(51.3099 9.03546 -2.35432e-15)
(51.3098 9.03631 2.84166e-15)
(51.31 9.03527 -2.09283e-19)
(51.3103 9.03416 -2.06835e-15)
(51.3107 9.03246 0)
(51.3114 9.03003 1.50358e-15)
(51.3125 9.02658 9.06036e-16)
(51.3144 9.02169 5.45428e-16)
(51.3172 9.01477 -1.31235e-15)
(51.3216 9.00501 -6.01572e-21)
(51.328 8.99134 0)
(51.3372 8.9724 5.66164e-16)
(51.35 8.94641 3.37841e-16)
(51.3675 8.91142 2.00812e-16)
(51.3906 8.86508 -5.79256e-20)
(51.4204 8.80403 -1.3909e-16)
(51.4591 8.72423 0)
(51.5088 8.62106 9.00756e-20)
(51.5733 8.48646 -1.01121e-19)
(51.655 8.31268 -5.66255e-17)
(51.7645 8.08114 -1.18031e-19)
(51.904 7.78087 1.21563e-19)
(52.0855 7.40003 -3.12008e-17)
(52.3235 6.98317 -3.93027e-17)
(52.5633 6.61983 2.46181e-17)
(52.7843 6.34765 6.27768e-17)
(52.9714 6.1653 6.13865e-19)
(53.1177 6.0509 -1.22857e-17)
(53.2159 5.97426 -1.63165e-17)
(53.2616 5.90353 1.25759e-21)
(53.2481 5.81869 1.20074e-17)
(53.182 5.69707 7.51107e-18)
(53.0427 5.54146 -2.34966e-18)
(52.844 5.35772 1.17683e-17)
(52.5609 5.14834 3.69131e-18)
(52.1922 4.92636 -4.63218e-18)
(51.7386 4.71034 2.9007e-18)
(51.2293 4.52332 5.43014e-18)
(50.7024 4.38979 -1.57181e-17)
(50.1848 4.32579 1.10562e-17)
(49.6716 4.318 -1.34674e-17)
(49.1466 4.32663 3.33266e-17)
(48.6216 4.34512 -1.89927e-17)
(48.1653 4.40511 0)
(47.7975 4.45529 -2.54292e-17)
(47.4085 4.7229 2.61474e-17)
(51.3103 9.03213 6.45761e-15)
(51.3084 9.03796 1.17074e-14)
(51.3099 9.03534 -2.3562e-15)
(51.3098 9.03621 -5.68512e-15)
(51.31 9.03514 0)
(51.3102 9.03399 2.06931e-15)
(51.3107 9.03224 0)
(51.3113 9.02974 -1.50432e-15)
(51.3125 9.02618 -9.06456e-16)
(51.3143 9.02111 -5.45797e-16)
(51.3171 9.01392 1.31314e-15)
(51.3214 9.00375 3.94479e-16)
(51.3277 8.98949 -4.73286e-16)
(51.3368 8.96968 -2.83289e-16)
(51.3495 8.94245 -3.38071e-16)
(51.3667 8.90575 -2.00992e-16)
(51.3895 8.8571 0)
(51.419 8.79298 0)
(51.4572 8.70919 -7.88758e-20)
(51.5062 8.60097 -9.23017e-17)
(51.5699 8.46001 1.03713e-16)
(51.6505 8.27831 0)
(51.7585 8.03686 0)
(51.8963 7.72421 0)
(52.0764 7.32726 6.21028e-17)
(52.3128 6.89429 7.96148e-17)
(52.5518 6.51723 -2.50289e-17)
(52.7734 6.23387 -3.14086e-17)
(52.9617 6.04423 0)
(53.1092 5.92689 0)
(53.2075 5.8517 -9.59706e-19)
(53.2516 5.78665 1.08e-17)
(53.234 5.71135 -1.20066e-17)
(53.1614 5.60439 1.87671e-18)
(53.0142 5.46984 -7.04053e-18)
(52.8051 5.31612 -5.87714e-18)
(52.5123 5.14558 -6.26972e-22)
(52.1396 4.96957 -4.63282e-18)
(51.6909 4.80776 0)
(51.1978 4.68081 1.44837e-17)
(50.7001 4.60909 -1.1232e-17)
(50.2238 4.60484 0)
(49.7605 4.64995 0)
(49.2894 4.69886 -1.01116e-18)
(48.8184 4.74484 0)
(48.4213 4.82247 -1.35816e-18)
(48.1211 4.88582 1.4981e-18)
(47.8047 5.15782 -7.93189e-19)
(51.3103 9.03194 -6.46018e-15)
(51.3084 9.03789 2.02474e-22)
(51.3099 9.03522 -2.35666e-15)
(51.3098 9.0361 5.68838e-15)
(51.31 9.03501 -1.71581e-15)
(51.3102 9.03383 -2.52721e-19)
(51.3106 9.03203 0)
(51.3113 9.02944 9.18685e-20)
(51.3124 9.02575 -1.10704e-19)
(51.3142 9.0205 0)
(51.317 9.01303 -3.37231e-22)
(51.3212 9.00245 -3.94739e-16)
(51.3274 8.98757 4.73616e-16)
(51.3364 8.96687 -5.67009e-16)
(51.3489 8.93837 0)
(51.3659 8.8999 0)
(51.3884 8.84887 0)
(51.4175 8.78161 0)
(51.4552 8.69376 7.89802e-20)
(51.5035 8.5804 9.24428e-17)
(51.5663 8.43301 -2.07788e-16)
(51.6456 8.24338 -1.11226e-19)
(51.752 7.99206 1.18579e-19)
(51.8879 7.6672 -6.25887e-17)
(52.0664 7.25444 -3.12634e-17)
(52.301 6.80557 -7.93778e-17)
(52.5393 6.41499 3.91178e-19)
(52.7614 6.12057 -4.91186e-19)
(52.9511 5.92373 1.96647e-17)
(53.1001 5.80368 0)
(53.1989 5.7304 0)
(53.2418 5.67189 -1.07979e-17)
(53.2209 5.60751 1.50038e-18)
(53.1427 5.51712 -1.87543e-18)
(52.9895 5.4061 1.64014e-17)
(52.7725 5.28502 -5.86411e-18)
(52.474 5.15542 -3.68691e-18)
(52.1033 5.02622 4.63271e-18)
(51.6669 4.91688 -1.4509e-17)
(51.1974 4.84498 -7.24405e-18)
(50.7349 4.82681 2.24579e-18)
(50.3033 4.87164 2.48987e-17)
(49.8897 4.95754 -1.3479e-17)
(49.469 5.03393 1.82063e-17)
(49.0455 5.09501 -1.90313e-17)
(48.698 5.17896 -1.90294e-17)
(48.4541 5.24667 2.39695e-17)
(48.1982 5.51411 0)
(51.3102 9.03175 1.29249e-14)
(51.3084 9.03782 -7.80991e-15)
(51.3098 9.03509 4.71429e-15)
(51.3098 9.03599 1.94849e-25)
(51.31 9.03487 1.71661e-15)
(51.3102 9.03366 5.05685e-19)
(51.3106 9.0318 -3.0496e-19)
(51.3112 9.02913 1.50596e-15)
(51.3123 9.02532 1.10763e-19)
(51.3141 9.01987 -1.33386e-19)
(51.3168 9.01211 -6.57396e-16)
(51.3209 9.00111 3.61636e-20)
(51.3271 8.98559 -4.73925e-16)
(51.3359 8.96397 -1.74911e-20)
(51.3482 8.93417 3.38691e-16)
(51.365 8.89389 4.91457e-20)
(51.3872 8.84043 -5.81044e-20)
(51.4159 8.76995 0)
(51.453 8.67798 7.90856e-20)
(51.5006 8.55942 -2.72228e-23)
(51.5624 8.40557 1.03973e-16)
(51.6404 8.20802 0)
(51.745 7.94693 -6.0832e-17)
(51.8788 7.61008 1.2525e-16)
(52.0555 7.18188 2.4502e-19)
(52.2881 6.71739 3.97251e-17)
(52.5255 6.31354 -2.50606e-17)
(52.7483 6.00822 4.91171e-19)
(52.9396 5.8043 -1.23164e-18)
(53.0905 5.68177 7.68468e-19)
(53.1902 5.61085 9.59824e-19)
(53.2326 5.55975 1.79959e-17)
(53.2093 5.50761 -1.19977e-17)
(53.1268 5.43559 -1.87378e-18)
(52.9701 5.35027 -7.01229e-18)
(52.7478 5.26356 1.16889e-17)
(52.448 5.17575 3.68251e-18)
(52.0852 5.09284 0)
(51.6678 5.03265 6.48748e-22)
(51.2274 5.00942 3.62141e-18)
(50.8036 5.03595 0)
(50.4172 5.1196 -2.76632e-18)
(50.0508 5.23568 1.68429e-18)
(49.6751 5.32912 -2.02296e-18)
(49.2912 5.39571 0)
(48.9837 5.47805 -1.35904e-18)
(48.7855 5.5446 0)
(48.5793 5.8023 0)
(51.3102 9.03154 -6.46554e-15)
(51.3084 9.03775 7.81533e-15)
(51.3098 9.03495 -4.71759e-15)
(51.3098 9.03588 2.84666e-15)
(51.3099 9.03473 0)
(51.3102 9.03348 0)
(51.3106 9.03156 2.49949e-15)
(51.3112 9.02881 -1.50676e-15)
(51.3123 9.02487 0)
(51.314 9.01922 -6.67313e-20)
(51.3166 9.01117 8.02933e-20)
(51.3207 8.99972 -7.90508e-16)
(51.3267 8.98356 4.74277e-16)
(51.3354 8.961 5.6787e-16)
(51.3475 8.92985 -7.93976e-22)
(51.3641 8.88773 0)
(51.3859 8.83178 0)
(51.4142 8.75805 6.82238e-20)
(51.4507 8.6619 -7.92106e-20)
(51.4976 8.5381 -1.85717e-16)
(51.5583 8.37778 1.01826e-19)
(51.6348 8.17235 0)
(51.7375 7.90164 1.21693e-16)
(51.8691 7.55308 -6.26574e-17)
(52.0437 7.1099 0)
(52.2741 6.63014 0)
(52.5105 6.21334 2.54707e-17)
(52.734 5.89733 -3.19547e-17)
(52.9271 5.68649 -1.96843e-17)
(53.0803 5.5617 0)
(53.1816 5.49358 0)
(53.2242 5.4507 -1.24508e-21)
(53.1997 5.41203 1.4993e-17)
(53.1147 5.36006 -3.74338e-18)
(52.957 5.30225 9.31004e-18)
(52.7326 5.25064 -9.70243e-22)
(52.436 5.20405 -1.10337e-17)
(52.087 5.16562 4.62904e-18)
(51.6936 5.15009 -8.70165e-18)
(51.2859 5.16849 3.25723e-17)
(50.9021 5.23108 -1.79609e-17)
(50.5592 5.34445 0)
(50.2356 5.48197 -1.68339e-18)
(49.8987 5.58438 0)
(49.5466 5.64945 4.04043e-17)
(49.2696 5.72503 -4.3423e-17)
(49.108 5.78726 0)
(48.9428 6.0326 0)
(51.3102 9.03134 0)
(51.3085 9.03767 -3.90923e-15)
(51.3098 9.03482 -3.33241e-22)
(51.3098 9.03576 -5.69644e-15)
(51.3099 9.03458 -3.43697e-15)
(51.3101 9.0333 2.07385e-15)
(51.3105 9.03132 -2.50078e-15)
(51.3111 9.02848 -1.8403e-19)
(51.3122 9.0244 1.81708e-15)
(51.3138 9.01856 -1.09404e-15)
(51.3165 9.0102 -1.46708e-24)
(51.3204 8.9983 7.90932e-16)
(51.3264 8.98147 2.89675e-20)
(51.3349 8.95795 5.68271e-16)
(51.3468 8.92544 -3.3924e-16)
(51.3631 8.88143 -4.03416e-16)
(51.3846 8.82296 2.91139e-20)
(51.4124 8.74593 0)
(51.4483 8.64558 0)
(51.4943 8.51652 1.86e-16)
(51.5538 8.34975 -1.01999e-19)
(51.6288 8.13651 -2.23749e-19)
(51.7295 7.85636 -6.0858e-17)
(51.8586 7.49643 -6.30511e-17)
(52.0309 7.03882 2.46103e-19)
(52.2589 6.54422 -3.1099e-19)
(52.4942 6.11484 -2.50948e-17)
(52.7184 5.7884 3.05021e-17)
(52.9137 5.57083 1.23113e-18)
(53.0695 5.444 1.07612e-17)
(53.1731 5.37909 1.72806e-17)
(53.217 5.34517 -1.19949e-17)
(53.1928 5.32111 2.99728e-18)
(53.1074 5.29067 3.73799e-18)
(52.9512 5.26174 -1.3874e-17)
(52.7285 5.24487 -1.15178e-17)
(52.4405 5.23769 7.34081e-18)
(52.1099 5.24082 1.85029e-17)
(51.7439 5.26473 0)
(51.3705 5.31763 -3.61661e-18)
(51.0256 5.4084 2.01867e-17)
(50.7231 5.54388 -1.9321e-17)
(50.4372 5.69601 -2.85714e-17)
(50.1328 5.8015 3.22857e-17)
(49.8052 5.86012 -2.3734e-18)
(49.55 5.92603 0)
(49.4172 5.98225 1.49006e-18)
(49.2859 6.21427 5.194e-17)
(51.3101 9.03112 0)
(51.3085 9.03759 0)
(51.3098 9.03467 4.72086e-15)
(51.3098 9.03564 2.85014e-15)
(51.3099 9.03443 3.43867e-15)
(51.3101 9.03311 -1.16219e-22)
(51.3105 9.03107 0)
(51.3111 9.02814 0)
(51.3121 9.02392 -1.81778e-15)
(51.3137 9.01787 3.70094e-22)
(51.3163 9.00921 -1.31709e-15)
(51.3202 8.99684 -9.66269e-20)
(51.326 8.97933 -4.74958e-16)
(51.3344 8.95483 -8.65297e-22)
(51.346 8.92093 0)
(51.362 8.87501 7.51839e-21)
(51.3831 8.814 2.18542e-20)
(51.4105 8.73364 -3.41995e-20)
(51.4457 8.62907 -7.94028e-20)
(51.4907 8.49476 1.81816e-19)
(51.5491 8.32158 -1.02169e-19)
(51.6224 8.10066 1.14917e-16)
(51.7209 7.8113 -6.13418e-17)
(51.8473 7.44039 -2.44566e-19)
(52.0172 6.96895 -3.13501e-17)
(52.2424 6.46001 -3.98207e-17)
(52.4765 6.01848 -7.82642e-19)
(52.7016 5.68196 -1.47669e-17)
(52.8992 5.45787 0)
(53.0584 5.32921 -2.46052e-17)
(53.1651 5.26788 -1.34434e-17)
(53.2113 5.24357 -2.39883e-18)
(53.1892 5.23509 1.19817e-17)
(53.1057 5.22745 -3.73173e-18)
(52.9534 5.2281 -4.59061e-18)
(52.7367 5.24491 -1.14504e-17)
(52.4633 5.27449 -7.33324e-18)
(52.1549 5.31529 4.6209e-18)
(51.8176 5.37299 1.15825e-17)
(51.478 5.45359 -2.88947e-17)
(51.1698 5.56571 1.56768e-17)
(50.9037 5.71724 1.92875e-17)
(50.6501 5.87884 -2.18035e-17)
(50.3721 5.98327 -3.22208e-17)
(50.0626 6.03222 4.02516e-17)
(49.8213 6.08725 1.35012e-18)
(49.7107 6.1366 -1.48524e-18)
(49.6077 6.35548 -5.17232e-17)
(51.3101 9.03091 -6.47622e-15)
(51.3085 9.0375 1.91062e-18)
(51.3098 9.03453 -1.15325e-18)
(51.3098 9.03552 -8.55258e-15)
(51.3099 9.03428 3.4404e-15)
(51.3101 9.03291 -2.07522e-15)
(51.3104 9.03082 -4.65345e-25)
(51.311 9.02779 -1.84233e-19)
(51.312 9.02343 -2.22025e-19)
(51.3136 9.01717 3.64422e-22)
(51.3161 9.00819 2.63603e-15)
(51.3199 8.99535 9.66896e-20)
(51.3255 8.97714 1.42579e-15)
(51.3338 8.95165 3.38929e-20)
(51.3452 8.91634 -3.75686e-24)
(51.3608 8.86849 8.08256e-16)
(51.3816 8.80492 -2.38977e-16)
(51.4084 8.72123 0)
(51.443 8.61243 -3.97534e-20)
(51.487 8.4729 4.55278e-20)
(51.5441 8.29339 -1.04775e-16)
(51.6156 8.06493 -2.33996e-21)
(51.7117 7.76663 6.13481e-17)
(51.8352 7.3852 6.33423e-17)
(52.0023 6.90062 6.33516e-17)
(52.2245 6.37793 5.91588e-17)
(52.4574 5.92475 5.1051e-17)
(52.6833 5.57851 3.15269e-17)
(52.8837 5.34817 1.23179e-18)
(53.0467 5.21787 1.07689e-17)
(53.1576 5.16044 -1.92031e-18)
(53.2077 5.14628 4.79666e-18)
(53.1896 5.15413 -1.19777e-17)
(53.1103 5.17023 -3.72632e-18)
(52.9641 5.20034 9.15689e-18)
(52.7584 5.24966 1.03561e-21)
(52.5055 5.31307 0)
(52.2217 5.38682 -4.6168e-18)
(51.9133 5.47237 0)
(51.6054 5.5744 -1.44257e-17)
(51.3306 5.70217 -8.09018e-22)
(51.0964 5.86507 4.12385e-17)
(50.8699 6.03229 -2.67674e-17)
(50.613 6.1329 -3.21386e-17)
(50.316 6.17035 -2.36219e-18)
(50.0817 6.21463 4.17197e-17)
(49.9878 6.25671 0)
(49.9083 6.46355 4.99015e-17)
(51.3101 9.03068 1.29535e-14)
(51.3085 9.03742 0)
(51.3097 9.03438 -4.72604e-15)
(51.3097 9.03539 8.55693e-15)
(51.3099 9.03412 -3.44216e-15)
(51.3101 9.03271 2.0763e-15)
(51.3104 9.03055 3.05755e-19)
(51.3109 9.02743 -1.50989e-15)
(51.3119 9.02293 -1.4691e-24)
(51.3134 9.01645 1.09555e-15)
(51.3158 9.00714 -1.31869e-15)
(51.3196 8.99383 0)
(51.3251 8.97492 -9.51183e-16)
(51.3331 8.94841 -5.69806e-16)
(51.3443 8.91169 6.80178e-16)
(51.3596 8.8619 -8.08985e-16)
(51.3799 8.79575 1.139e-21)
(51.4062 8.70873 -4.28408e-21)
(51.44 8.59574 2.4879e-20)
(51.483 8.45103 1.86746e-16)
(51.5387 8.26529 2.09833e-16)
(51.6084 8.02948 -1.15108e-16)
(51.7019 7.72255 6.13472e-17)
(51.8223 7.3311 -6.3726e-17)
(51.9863 6.83414 -3.15048e-17)
(52.2053 6.29836 -1.1639e-21)
(52.4368 5.83409 -2.51526e-17)
(52.6637 5.47856 -1.47903e-17)
(52.8671 5.24224 -1.23327e-18)
(53.0347 5.11051 -1.5387e-18)
(53.1508 5.05723 1.92122e-18)
(53.2063 5.0536 0)
(53.1945 5.07832 -1.49626e-17)
(53.1218 5.1186 1.11667e-17)
(52.985 5.17754 0)
(52.7955 5.25784 5.77493e-18)
(52.567 5.35195 -7.33376e-18)
(52.3092 5.45366 9.22622e-18)
(52.0286 5.56128 0)
(51.7498 5.67925 -1.43993e-17)
(51.5045 5.81805 2.23065e-17)
(51.2976 5.9888 8.10991e-22)
(51.0935 6.15876 -3.33612e-18)
(50.853 6.25375 0)
(50.5638 6.27893 -3.76769e-17)
(50.3303 6.31353 4.29134e-17)
(50.2482 6.34844 -4.70676e-17)
(50.1884 6.5455 4.96125e-17)
(51.31 9.03045 -6.47971e-15)
(51.3086 9.03733 0)
(51.3097 9.03422 9.45682e-15)
(51.3097 9.03525 -8.56133e-15)
(51.3098 9.03395 0)
(51.31 9.03251 -1.11039e-22)
(51.3103 9.03028 -2.50612e-15)
(51.3109 9.02706 3.02222e-15)
(51.3118 9.02241 -2.22285e-19)
(51.3133 9.01571 -1.09661e-15)
(51.3156 9.00608 -3.22192e-19)
(51.3192 8.99228 -1.93641e-19)
(51.3246 8.97266 2.32423e-19)
(51.3324 8.94513 0)
(51.3433 8.90698 -6.80927e-16)
(51.3583 8.85525 4.0502e-16)
(51.3782 8.78653 2.39429e-16)
(51.4039 8.6962 6.86368e-20)
(51.4369 8.57905 1.63267e-16)
(51.4787 8.42925 -3.73969e-16)
(51.5329 8.23741 -1.05054e-16)
(51.6006 7.99447 -5.63679e-20)
(51.6915 7.67926 -6.13453e-17)
(51.8084 7.27833 6.33668e-17)
(51.9691 6.7698 4.97031e-19)
(52.1847 6.22172 -6.25161e-19)
(52.4146 5.74694 0)
(52.6425 5.38261 0)
(52.8494 5.14062 -1.85068e-17)
(53.0223 5.00764 -1.23184e-17)
(53.1448 4.95868 -6.00339e-22)
(53.2076 4.9658 -5.17777e-22)
(53.2043 5.00767 -2.99015e-18)
(53.141 5.07199 -1.15446e-21)
(53.0177 5.1587 0)
(52.8487 5.26778 -5.81586e-18)
(52.6463 5.38931 2.20151e-17)
(52.4152 5.51414 -4.60699e-18)
(52.161 5.6386 0)
(51.9083 5.768 1.43693e-17)
(51.6887 5.91434 -9.7482e-22)
(51.505 6.09043 -1.91341e-17)
(51.319 6.26099 3.3236e-18)
(51.0908 6.34931 -1.99621e-18)
(50.8053 6.36232 2.34783e-18)
(50.5674 6.38902 -2.67289e-18)
(50.4924 6.41741 0)
(50.4486 6.60778 -1.54058e-18)
(51.31 9.03022 7.91353e-19)
(51.3086 9.03723 -1.91345e-18)
(51.3097 9.03406 -4.72968e-15)
(51.3097 9.03512 5.7105e-15)
(51.3098 9.03378 0)
(51.31 9.0323 -6.23632e-15)
(51.3103 9.03001 2.50781e-15)
(51.3108 9.02668 -2.27755e-22)
(51.3117 9.02189 -6.67239e-19)
(51.3131 9.01496 1.09755e-15)
(51.3154 9.00499 1.61195e-19)
(51.3189 8.9907 7.93513e-16)
(51.3241 8.97036 9.52441e-16)
(51.3317 8.94182 -5.70276e-16)
(51.3423 8.90224 6.81249e-16)
(51.3569 8.84857 4.05586e-16)
(51.3763 8.7773 -1.84032e-23)
(51.4014 8.68368 -1.37425e-19)
(51.4336 8.56244 -1.63388e-16)
(51.4741 8.40764 -1.12099e-19)
(51.5268 8.20987 2.57026e-20)
(51.5924 7.96004 5.64323e-20)
(51.6803 7.63695 6.16377e-17)
(51.7937 7.22711 0)
(51.9507 6.70791 1.59503e-17)