/*--------------------------------*- C++ -*----------------------------------*\
  =========                 |
  \\      /  F ield         | OpenFOAM: The Open Source CFD Toolbox
   \\    /   O peration     | Website:  https://openfoam.org
    \\  /    A nd           | Version:  10
     \\/     M anipulation  |
\*---------------------------------------------------------------------------*/
FoamFile
{
    format      ascii;
    class       volScalarField;
    location    "10";
    object      nut;
}
// * * * * * * * * * * * * * * * * * * * * * * * * * * * * * * * * * * * * * //

dimensions      [0 2 -1 0 0 0 0];

internalField   nonuniform List<scalar> 
38016
(
1.92195e-06
1.92173e-06
1.91968e-06
1.92465e-06
1.91936e-06
1.92476e-06
1.92183e-06
1.92348e-06
1.92476e-06
1.92208e-06
1.92712e-06
1.92309e-06
1.92486e-06
1.92611e-06
1.92185e-06
1.9258e-06
1.92189e-06
1.92447e-06
1.9251e-06
1.92786e-06
1.93196e-06
1.93849e-06
1.9468e-06
1.95956e-06
1.97799e-06
1.99487e-06
2.01059e-06
2.02837e-06
2.06721e-06
2.12004e-06
2.19362e-06
2.28042e-06
2.41501e-06
2.58696e-06
2.74114e-06
2.93967e-06
3.12801e-06
3.58456e-06
3.80886e-06
4.13098e-06
4.43449e-06
4.66879e-06
4.74747e-06
5.00968e-06
6.15244e-06
7.86758e-06
9.17116e-06
9.56522e-06
1.92195e-06
1.92168e-06
1.91965e-06
1.9246e-06
1.91933e-06
1.9247e-06
1.92181e-06
1.9234e-06
1.92474e-06
1.92198e-06
1.92709e-06
1.92301e-06
1.92485e-06
1.92611e-06
1.92175e-06
1.92578e-06
1.92175e-06
1.92434e-06
1.92494e-06
1.92761e-06
1.93168e-06
1.93807e-06
1.94626e-06
1.95887e-06
1.97701e-06
1.99376e-06
2.00931e-06
2.02703e-06
2.06587e-06
2.11876e-06
2.19232e-06
2.27913e-06
2.41418e-06
2.5865e-06
2.74093e-06
2.93895e-06
3.12685e-06
3.58343e-06
3.8071e-06
4.12879e-06
4.43134e-06
4.66514e-06
4.74375e-06
5.00408e-06
6.14141e-06
7.85248e-06
9.15904e-06
9.54882e-06
1.922e-06
1.92209e-06
1.9223e-06
1.92234e-06
1.9226e-06
1.92253e-06
1.92297e-06
1.92276e-06
1.92351e-06
1.92327e-06
1.92435e-06
1.92426e-06
1.92498e-06
1.92512e-06
1.92493e-06
1.92565e-06
1.92579e-06
1.92851e-06
1.93073e-06
1.9352e-06
1.93845e-06
1.94405e-06
1.94978e-06
1.96015e-06
1.97368e-06
1.99113e-06
2.01156e-06
2.03501e-06
2.07294e-06
2.12077e-06
2.19114e-06
2.28116e-06
2.40915e-06
2.56061e-06
2.74009e-06
2.95161e-06
3.19705e-06
3.53153e-06
3.7475e-06
3.94858e-06
4.38415e-06
4.76853e-06
4.79445e-06
4.98148e-06
6.10877e-06
7.86493e-06
9.19653e-06
9.56828e-06
1.922e-06
1.92204e-06
1.92229e-06
1.92229e-06
1.92259e-06
1.92248e-06
1.92297e-06
1.92271e-06
1.9235e-06
1.92322e-06
1.92431e-06
1.92423e-06
1.92495e-06
1.92508e-06
1.92491e-06
1.92557e-06
1.92572e-06
1.9284e-06
1.93055e-06
1.93499e-06
1.93814e-06
1.94368e-06
1.94929e-06
1.95948e-06
1.97284e-06
1.99001e-06
2.01027e-06
2.0336e-06
2.07151e-06
2.11937e-06
2.18987e-06
2.28007e-06
2.40801e-06
2.55918e-06
2.73853e-06
2.94921e-06
3.19655e-06
3.5308e-06
3.74984e-06
3.9493e-06
4.38752e-06
4.76898e-06
4.78783e-06
4.97669e-06
6.11444e-06
7.87473e-06
9.1958e-06
9.55288e-06
1.922e-06
1.92204e-06
1.92229e-06
1.92229e-06
1.92259e-06
1.92247e-06
1.92297e-06
1.9227e-06
1.9235e-06
1.92322e-06
1.92431e-06
1.92422e-06
1.92494e-06
1.92506e-06
1.92487e-06
1.92552e-06
1.92565e-06
1.9283e-06
1.9304e-06
1.93479e-06
1.93786e-06
1.94331e-06
1.94878e-06
1.95879e-06
1.97192e-06
1.98884e-06
2.00891e-06
2.03212e-06
2.06999e-06
2.11788e-06
2.18845e-06
2.27875e-06
2.40685e-06
2.55805e-06
2.73763e-06
2.94775e-06
3.19633e-06
3.53013e-06
3.75394e-06
3.95069e-06
4.39088e-06
4.76946e-06
4.78102e-06
4.97258e-06
6.12355e-06
7.88998e-06
9.19716e-06
9.53951e-06
1.922e-06
1.92204e-06
1.92229e-06
1.92228e-06
1.92259e-06
1.92247e-06
1.92297e-06
1.9227e-06
1.9235e-06
1.92321e-06
1.9243e-06
1.92421e-06
1.92492e-06
1.92503e-06
1.92484e-06
1.92546e-06
1.92557e-06
1.92819e-06
1.93024e-06
1.93458e-06
1.93756e-06
1.94292e-06
1.94825e-06
1.95808e-06
1.97096e-06
1.98763e-06
2.0075e-06
2.03058e-06
2.06842e-06
2.11633e-06
2.18697e-06
2.27737e-06
2.40565e-06
2.55684e-06
2.73672e-06
2.94606e-06
3.19626e-06
3.52933e-06
3.75869e-06
3.95201e-06
4.39338e-06
4.77008e-06
4.77527e-06
4.96921e-06
6.13242e-06
7.9055e-06
9.20151e-06
9.52972e-06
1.922e-06
1.92204e-06
1.92229e-06
1.92228e-06
1.92259e-06
1.92247e-06
1.92297e-06
1.9227e-06
1.9235e-06
1.92321e-06
1.92429e-06
1.9242e-06
1.92491e-06
1.92501e-06
1.9248e-06
1.9254e-06
1.92548e-06
1.92807e-06
1.93007e-06
1.93436e-06
1.93725e-06
1.94251e-06
1.94769e-06
1.95734e-06
1.96997e-06
1.98638e-06
2.00604e-06
2.02899e-06
2.06679e-06
2.11473e-06
2.18543e-06
2.27594e-06
2.40441e-06
2.55558e-06
2.73581e-06
2.94427e-06
3.19631e-06
3.5283e-06
3.76284e-06
3.95287e-06
4.39516e-06
4.77052e-06
4.77014e-06
4.96673e-06
6.14149e-06
7.91861e-06
9.20705e-06
9.5248e-06
1.922e-06
1.92204e-06
1.92229e-06
1.92228e-06
1.92259e-06
1.92247e-06
1.92297e-06
1.92269e-06
1.9235e-06
1.9232e-06
1.92429e-06
1.92419e-06
1.92489e-06
1.92498e-06
1.92475e-06
1.92534e-06
1.92539e-06
1.92795e-06
1.9299e-06
1.93412e-06
1.93693e-06
1.94208e-06
1.94711e-06
1.95657e-06
1.96895e-06
1.98509e-06
2.00454e-06
2.02736e-06
2.06511e-06
2.11308e-06
2.18383e-06
2.27445e-06
2.40313e-06
2.55427e-06
2.73489e-06
2.94245e-06
3.19638e-06
3.52702e-06
3.7658e-06
3.95311e-06
4.39636e-06
4.77052e-06
4.7651e-06
4.96419e-06
6.15087e-06
7.93042e-06
9.21157e-06
9.52409e-06
1.922e-06
1.92204e-06
1.92229e-06
1.92228e-06
1.92259e-06
1.92246e-06
1.92297e-06
1.92269e-06
1.92349e-06
1.9232e-06
1.92428e-06
1.92417e-06
1.92487e-06
1.92495e-06
1.92471e-06
1.92528e-06
1.9253e-06
1.92782e-06
1.92972e-06
1.93388e-06
1.93659e-06
1.94163e-06
1.94651e-06
1.95578e-06
1.96791e-06
1.98378e-06
2.00301e-06
2.0257e-06
2.06339e-06
2.11139e-06
2.18219e-06
2.27293e-06
2.40181e-06
2.5529e-06
2.73398e-06
2.94065e-06
3.19644e-06
3.52561e-06
3.7676e-06
3.95275e-06
4.39712e-06
4.77008e-06
4.75996e-06
4.96072e-06
6.15917e-06
7.94215e-06
9.21524e-06
9.52263e-06
1.922e-06
1.92204e-06
1.92229e-06
1.92227e-06
1.92259e-06
1.92246e-06
1.92297e-06
1.92269e-06
1.92349e-06
1.92319e-06
1.92427e-06
1.92416e-06
1.92485e-06
1.92492e-06
1.92467e-06
1.92521e-06
1.9252e-06
1.92769e-06
1.92953e-06
1.93362e-06
1.93624e-06
1.94117e-06
1.9459e-06
1.95496e-06
1.96683e-06
1.98244e-06
2.00145e-06
2.024e-06
2.06164e-06
2.10966e-06
2.18051e-06
2.27136e-06
2.40045e-06
2.5515e-06
2.73308e-06
2.93892e-06
3.19643e-06
3.52426e-06
3.76849e-06
3.95182e-06
4.39738e-06
4.76917e-06
4.75465e-06
4.95651e-06
6.16595e-06
7.954e-06
9.2202e-06
9.52283e-06
1.922e-06
1.92204e-06
1.92228e-06
1.92227e-06
1.92259e-06
1.92246e-06
1.92296e-06
1.92268e-06
1.92349e-06
1.92319e-06
1.92427e-06
1.92415e-06
1.92484e-06
1.92488e-06
1.92462e-06
1.92514e-06
1.9251e-06
1.92755e-06
1.92933e-06
1.93336e-06
1.93588e-06
1.94069e-06
1.94526e-06
1.95413e-06
1.96574e-06
1.98108e-06
1.99987e-06
2.02228e-06
2.05986e-06
2.1079e-06
2.17879e-06
2.26976e-06
2.39907e-06
2.55006e-06
2.73217e-06
2.93729e-06
3.19635e-06
3.52305e-06
3.76868e-06
3.95026e-06
4.39708e-06
4.76797e-06
4.74913e-06
4.95151e-06
6.17131e-06
7.96576e-06
9.22698e-06
9.52477e-06
1.922e-06
1.92204e-06
1.92228e-06
1.92227e-06
1.92259e-06
1.92246e-06
1.92296e-06
1.92268e-06
1.92349e-06
1.92318e-06
1.92426e-06
1.92413e-06
1.92482e-06
1.92485e-06
1.92457e-06
1.92507e-06
1.925e-06
1.9274e-06
1.92913e-06
1.93309e-06
1.9355e-06
1.9402e-06
1.94461e-06
1.95328e-06
1.96463e-06
1.9797e-06
1.99827e-06
2.02054e-06
2.05805e-06
2.10613e-06
2.17705e-06
2.26813e-06
2.39765e-06
2.54859e-06
2.73124e-06
2.93575e-06
3.19614e-06
3.52196e-06
3.76829e-06
3.94818e-06
4.39644e-06
4.76689e-06
4.74354e-06
4.94559e-06
6.17508e-06
7.97648e-06
9.23345e-06
9.52594e-06
1.922e-06
1.92203e-06
1.92228e-06
1.92227e-06
1.92259e-06
1.92245e-06
1.92296e-06
1.92268e-06
1.92348e-06
1.92317e-06
1.92425e-06
1.92412e-06
1.92479e-06
1.92482e-06
1.92452e-06
1.92499e-06
1.92489e-06
1.92725e-06
1.92891e-06
1.9328e-06
1.93512e-06
1.9397e-06
1.94395e-06
1.95242e-06
1.96351e-06
1.97831e-06
1.99666e-06
2.01879e-06
2.05624e-06
2.10435e-06
2.17529e-06
2.26649e-06
2.39622e-06
2.54711e-06
2.73029e-06
2.9343e-06
3.19576e-06
3.52091e-06
3.76749e-06
3.94594e-06
4.39588e-06
4.76599e-06
4.73783e-06
4.93907e-06
6.17832e-06
7.98766e-06
9.24195e-06
9.52674e-06
1.922e-06
1.92203e-06
1.92228e-06
1.92226e-06
1.92259e-06
1.92245e-06
1.92296e-06
1.92267e-06
1.92348e-06
1.92317e-06
1.92424e-06
1.9241e-06
1.92477e-06
1.92478e-06
1.92447e-06
1.92491e-06
1.92478e-06
1.9271e-06
1.9287e-06
1.93251e-06
1.93473e-06
1.93918e-06
1.94327e-06
1.95154e-06
1.96239e-06
1.97693e-06
1.99506e-06
2.01705e-06
2.05442e-06
2.10257e-06
2.17354e-06
2.26485e-06
2.39478e-06
2.54561e-06
2.72928e-06
2.93291e-06
3.19517e-06
3.51984e-06
3.76653e-06
3.94393e-06
4.3955e-06
4.7648e-06
4.73173e-06
4.93239e-06
6.18162e-06
7.99873e-06
9.24943e-06
9.52183e-06
1.922e-06
1.92203e-06
1.92228e-06
1.92226e-06
1.92259e-06
1.92245e-06
1.92296e-06
1.92267e-06
1.92348e-06
1.92316e-06
1.92423e-06
1.92409e-06
1.92475e-06
1.92474e-06
1.92441e-06
1.92483e-06
1.92467e-06
1.92694e-06
1.92848e-06
1.93222e-06
1.93433e-06
1.93866e-06
1.94259e-06
1.95067e-06
1.96126e-06
1.97555e-06
1.99346e-06
2.01532e-06
2.05262e-06
2.10081e-06
2.17179e-06
2.26323e-06
2.39333e-06
2.54411e-06
2.72822e-06
2.93156e-06
3.19433e-06
3.51871e-06
3.76558e-06
3.94222e-06
4.39498e-06
4.76286e-06
4.7253e-06
4.92631e-06
6.18598e-06
8.01091e-06
9.25821e-06
9.51528e-06
1.922e-06
1.92203e-06
1.92228e-06
1.92226e-06
1.92259e-06
1.92244e-06
1.92296e-06
1.92266e-06
1.92347e-06
1.92315e-06
1.92422e-06
1.92407e-06
1.92473e-06
1.92471e-06
1.92436e-06
1.92475e-06
1.92455e-06
1.92678e-06
1.92825e-06
1.93192e-06
1.93392e-06
1.93814e-06
1.9419e-06
1.94979e-06
1.96014e-06
1.97419e-06
1.99189e-06
2.01362e-06
2.05085e-06
2.09908e-06
2.17006e-06
2.26162e-06
2.39189e-06
2.54262e-06
2.7271e-06
2.93021e-06
3.19324e-06
3.51748e-06
3.76464e-06
3.9406e-06
4.39397e-06
4.76005e-06
4.71865e-06
4.92044e-06
6.18972e-06
8.02072e-06
9.26405e-06
9.50278e-06
1.922e-06
1.92203e-06
1.92228e-06
1.92226e-06
1.92259e-06
1.92244e-06
1.92296e-06
1.92266e-06
1.92347e-06
1.92315e-06
1.92421e-06
1.92406e-06
1.9247e-06
1.92467e-06
1.9243e-06
1.92467e-06
1.92443e-06
1.92662e-06
1.92802e-06
1.93161e-06
1.93351e-06
1.9376e-06
1.94121e-06
1.94891e-06
1.95904e-06
1.97285e-06
1.99035e-06
2.01196e-06
2.04911e-06
2.0974e-06
2.16837e-06
2.26006e-06
2.39047e-06
2.54116e-06
2.72592e-06
2.92885e-06
3.1919e-06
3.51611e-06
3.76358e-06
3.93876e-06
4.39214e-06
4.7563e-06
4.71172e-06
4.91429e-06
6.19158e-06
8.02679e-06
9.26585e-06
9.48512e-06
1.922e-06
1.92203e-06
1.92228e-06
1.92225e-06
1.92259e-06
1.92244e-06
1.92296e-06
1.92266e-06
1.92346e-06
1.92314e-06
1.9242e-06
1.92404e-06
1.92468e-06
1.92463e-06
1.92425e-06
1.92458e-06
1.92431e-06
1.92645e-06
1.92779e-06
1.93131e-06
1.93309e-06
1.93707e-06
1.94053e-06
1.94805e-06
1.95795e-06
1.97154e-06
1.98886e-06
2.01035e-06
2.04742e-06
2.09578e-06
2.16673e-06
2.25856e-06
2.38908e-06
2.53975e-06
2.72468e-06
2.92745e-06
3.19032e-06
3.51456e-06
3.76229e-06
3.9364e-06
4.38891e-06
4.75061e-06
4.70294e-06
4.90567e-06
6.18883e-06
8.02691e-06
9.26362e-06
9.46413e-06
1.922e-06
1.92203e-06
1.92228e-06
1.92225e-06
1.92259e-06
1.92243e-06
1.92296e-06
1.92265e-06
1.92346e-06
1.92313e-06
1.92419e-06
1.92402e-06
1.92465e-06
1.92459e-06
1.92419e-06
1.9245e-06
1.92419e-06
1.92629e-06
1.92756e-06
1.931e-06
1.93268e-06
1.93654e-06
1.93985e-06
1.9472e-06
1.9569e-06
1.97028e-06
1.98742e-06
2.0088e-06
2.04581e-06
2.09424e-06
2.16516e-06
2.25714e-06
2.38775e-06
2.53841e-06
2.72338e-06
2.92597e-06
3.18852e-06
3.51288e-06
3.76068e-06
3.9332e-06
4.38373e-06
4.74218e-06
4.69099e-06
4.89242e-06
6.17798e-06
8.01602e-06
9.25077e-06
9.43165e-06
1.922e-06
1.92202e-06
1.92228e-06
1.92225e-06
1.92259e-06
1.92243e-06
1.92296e-06
1.92265e-06
1.92346e-06
1.92312e-06
1.92418e-06
1.92401e-06
1.92463e-06
1.92455e-06
1.92413e-06
1.92441e-06
1.92407e-06
1.92612e-06
1.92732e-06
1.93069e-06
1.93227e-06
1.93602e-06
1.93918e-06
1.94637e-06
1.95588e-06
1.96907e-06
1.98605e-06
2.00734e-06
2.04428e-06
2.09279e-06
2.16368e-06
2.25582e-06
2.38649e-06
2.53712e-06
2.72199e-06
2.9244e-06
3.18658e-06
3.51109e-06
3.7586e-06
3.92884e-06
4.37638e-06
4.73123e-06
4.67675e-06
4.87633e-06
6.16248e-06
8.00065e-06
9.23769e-06
9.39823e-06
1.922e-06
1.92202e-06
1.92228e-06
1.92225e-06
1.92259e-06
1.92243e-06
1.92295e-06
1.92264e-06
1.92345e-06
1.92312e-06
1.92417e-06
1.92399e-06
1.9246e-06
1.9245e-06
1.92407e-06
1.92432e-06
1.92395e-06
1.92595e-06
1.92709e-06
1.93038e-06
1.93186e-06
1.9355e-06
1.93853e-06
1.94556e-06
1.9549e-06
1.96793e-06
1.98477e-06
2.00597e-06
2.04286e-06
2.09146e-06
2.1623e-06
2.25461e-06
2.38532e-06
2.53588e-06
2.72052e-06
2.92277e-06
3.18455e-06
3.50926e-06
3.75595e-06
3.92311e-06
4.36676e-06
4.71762e-06
4.65978e-06
4.85657e-06
6.14118e-06
7.97939e-06
9.21632e-06
9.35886e-06
1.922e-06
1.92202e-06
1.92228e-06
1.92224e-06
1.92259e-06
1.92242e-06
1.92295e-06
1.92264e-06
1.92345e-06
1.92311e-06
1.92416e-06
1.92397e-06
1.92458e-06
1.92446e-06
1.92401e-06
1.92424e-06
1.92383e-06
1.92579e-06
1.92686e-06
1.93008e-06
1.93146e-06
1.93499e-06
1.93789e-06
1.94479e-06
1.95397e-06
1.96686e-06
1.98357e-06
2.00471e-06
2.04155e-06
2.09026e-06
2.16104e-06
2.25353e-06
2.38426e-06
2.53471e-06
2.71898e-06
2.92111e-06
3.18251e-06
3.50742e-06
3.75285e-06
3.91643e-06
4.35594e-06
4.70302e-06
4.64182e-06
4.83504e-06
6.1173e-06
7.95759e-06
9.1913e-06
9.3165e-06
1.922e-06
1.92202e-06
1.92228e-06
1.92224e-06
1.92259e-06
1.92242e-06
1.92295e-06
1.92263e-06
1.92344e-06
1.9231e-06
1.92415e-06
1.92395e-06
1.92455e-06
1.92442e-06
1.92396e-06
1.92415e-06
1.92371e-06
1.92563e-06
1.92663e-06
1.92979e-06
1.93106e-06
1.9345e-06
1.93728e-06
1.94406e-06
1.95311e-06
1.96588e-06
1.98249e-06
2.00358e-06
2.04038e-06
2.08922e-06
2.15992e-06
2.2526e-06
2.3833e-06
2.5336e-06
2.71744e-06
2.91949e-06
3.18053e-06
3.50554e-06
3.74935e-06
3.90917e-06
4.34476e-06
4.68874e-06
4.62474e-06
4.81456e-06
6.09549e-06
7.94005e-06
9.17051e-06
9.27974e-06
1.92199e-06
1.92202e-06
1.92228e-06
1.92224e-06
1.92259e-06
1.92241e-06
1.92295e-06
1.92263e-06
1.92344e-06
1.92309e-06
1.92414e-06
1.92393e-06
1.92453e-06
1.92438e-06
1.9239e-06
1.92407e-06
1.92359e-06
1.92547e-06
1.92641e-06
1.9295e-06
1.93068e-06
1.93402e-06
1.9367e-06
1.94336e-06
1.95231e-06
1.96498e-06
1.98152e-06
2.00259e-06
2.03937e-06
2.08835e-06
2.15897e-06
2.25184e-06
2.38246e-06
2.53254e-06
2.71591e-06
2.918e-06
3.17862e-06
3.50346e-06
3.74536e-06
3.90127e-06
4.33292e-06
4.67389e-06
4.60707e-06
4.79339e-06
6.07368e-06
7.92549e-06
9.14827e-06
9.24223e-06
1.92199e-06
1.92202e-06
1.92228e-06
1.92223e-06
1.92259e-06
1.92241e-06
1.92295e-06
1.92262e-06
1.92343e-06
1.92308e-06
1.92413e-06
1.92391e-06
1.9245e-06
1.92434e-06
1.92384e-06
1.92399e-06
1.92347e-06
1.92532e-06
1.9262e-06
1.92922e-06
1.93031e-06
1.93357e-06
1.93614e-06
1.94272e-06
1.95158e-06
1.96419e-06
1.98068e-06
2.00175e-06
2.03853e-06
2.08767e-06
2.15822e-06
2.25125e-06
2.38174e-06
2.53157e-06
2.71444e-06
2.91658e-06
3.17661e-06
3.5008e-06
3.74074e-06
3.89271e-06
4.32028e-06
4.65805e-06
4.58835e-06
4.77131e-06
6.05214e-06
7.90598e-06
9.12354e-06
9.20339e-06
1.92199e-06
1.92202e-06
1.92227e-06
1.92223e-06
1.92259e-06
1.92241e-06
1.92295e-06
1.92262e-06
1.92343e-06
1.92307e-06
1.92412e-06
1.9239e-06
1.92448e-06
1.9243e-06
1.92379e-06
1.92391e-06
1.92336e-06
1.92517e-06
1.92599e-06
1.92895e-06
1.92996e-06
1.93314e-06
1.93562e-06
1.94212e-06
1.95093e-06
1.96351e-06
1.97998e-06
2.00108e-06
2.03788e-06
2.08722e-06
2.15769e-06
2.2508e-06
2.38102e-06
2.53056e-06
2.71292e-06
2.91504e-06
3.17406e-06
3.49708e-06
3.73496e-06
3.88286e-06
4.30564e-06
4.63943e-06
4.56665e-06
4.74662e-06
6.02793e-06
7.87881e-06
9.09224e-06
9.1604e-06
1.92199e-06
1.92201e-06
1.92227e-06
1.92223e-06
1.92259e-06
1.9224e-06
1.92295e-06
1.92261e-06
1.92343e-06
1.92306e-06
1.92411e-06
1.92388e-06
1.92445e-06
1.92426e-06
1.92373e-06
1.92383e-06
1.92326e-06
1.92503e-06
1.92579e-06
1.9287e-06
1.92962e-06
1.93273e-06
1.93514e-06
1.94159e-06
1.95037e-06
1.96295e-06
1.97943e-06
2.0006e-06
2.03744e-06
2.08696e-06
2.15732e-06
2.25042e-06
2.38031e-06
2.52952e-06
2.71132e-06
2.91316e-06
3.17064e-06
3.49186e-06
3.72732e-06
3.87085e-06
4.28759e-06
4.61566e-06
4.53926e-06
4.71631e-06
5.99705e-06
7.83829e-06
9.04781e-06
9.10764e-06
1.92199e-06
1.92201e-06
1.92227e-06
1.92222e-06
1.92259e-06
1.9224e-06
1.92294e-06
1.92261e-06
1.92342e-06
1.92306e-06
1.9241e-06
1.92386e-06
1.92443e-06
1.92422e-06
1.92368e-06
1.92376e-06
1.92315e-06
1.92489e-06
1.9256e-06
1.92846e-06
1.92931e-06
1.93235e-06
1.9347e-06
1.94111e-06
1.9499e-06
1.96251e-06
1.97904e-06
2.00029e-06
2.03715e-06
2.08684e-06
2.15708e-06
2.25011e-06
2.37947e-06
2.52846e-06
2.70964e-06
2.91077e-06
3.16611e-06
3.48467e-06
3.71777e-06
3.85656e-06
4.26566e-06
4.58636e-06
4.50615e-06
4.68105e-06
5.95843e-06
7.78401e-06
8.98966e-06
9.04598e-06
1.92199e-06
1.92201e-06
1.92227e-06
1.92222e-06
1.92258e-06
1.92239e-06
1.92294e-06
1.9226e-06
1.92342e-06
1.92305e-06
1.92409e-06
1.92384e-06
1.92441e-06
1.92419e-06
1.92363e-06
1.92369e-06
1.92306e-06
1.92477e-06
1.92543e-06
1.92824e-06
1.92901e-06
1.93201e-06
1.93431e-06
1.9407e-06
1.94953e-06
1.9622e-06
1.97878e-06
2.00008e-06
2.03699e-06
2.08687e-06
2.15699e-06
2.24963e-06
2.37826e-06
2.52698e-06
2.70746e-06
2.90773e-06
3.16003e-06
3.47506e-06
3.70644e-06
3.84003e-06
4.23979e-06
4.55185e-06
4.46835e-06
4.64256e-06
5.91082e-06
7.71816e-06
8.92095e-06
8.97967e-06
1.92199e-06
1.92201e-06
1.92227e-06
1.92222e-06
1.92258e-06
1.92239e-06
1.92294e-06
1.92259e-06
1.92341e-06
1.92304e-06
1.92408e-06
1.92382e-06
1.92438e-06
1.92415e-06
1.92359e-06
1.92362e-06
1.92296e-06
1.92465e-06
1.92526e-06
1.92803e-06
1.92874e-06
1.9317e-06
1.93396e-06
1.94036e-06
1.94925e-06
1.962e-06
1.97861e-06
2e-06
2.03697e-06
2.08692e-06
2.15674e-06
2.24885e-06
2.37668e-06
2.52507e-06
2.70471e-06
2.90351e-06
3.15215e-06
3.46323e-06
3.69329e-06
3.8216e-06
4.21029e-06
4.51282e-06
4.42698e-06
4.60239e-06
5.85467e-06
7.64147e-06
8.84323e-06
8.91007e-06
1.92199e-06
1.92201e-06
1.92227e-06
1.92221e-06
1.92258e-06
1.92238e-06
1.92294e-06
1.92259e-06
1.92341e-06
1.92303e-06
1.92407e-06
1.92381e-06
1.92436e-06
1.92412e-06
1.92354e-06
1.92356e-06
1.92288e-06
1.92455e-06
1.92511e-06
1.92785e-06
1.9285e-06
1.93142e-06
1.93367e-06
1.94009e-06
1.94908e-06
1.96187e-06
1.97854e-06
2.00005e-06
2.03689e-06
2.08678e-06
2.15625e-06
2.24775e-06
2.37472e-06
2.5227e-06
2.70131e-06
2.89809e-06
3.14261e-06
3.44961e-06
3.67877e-06
3.80215e-06
4.17838e-06
4.47124e-06
4.38454e-06
4.56174e-06
5.79218e-06
7.55686e-06
8.76e-06
8.84012e-06
1.92199e-06
1.92201e-06
1.92227e-06
1.92221e-06
1.92258e-06
1.92238e-06
1.92294e-06
1.92258e-06
1.9234e-06
1.92302e-06
1.92406e-06
1.92379e-06
1.92434e-06
1.92408e-06
1.9235e-06
1.9235e-06
1.9228e-06
1.92445e-06
1.92497e-06
1.92769e-06
1.92828e-06
1.93119e-06
1.93343e-06
1.93989e-06
1.94899e-06
1.96183e-06
1.9785e-06
1.99995e-06
2.03663e-06
2.08644e-06
2.15549e-06
2.24632e-06
2.3724e-06
2.51985e-06
2.69719e-06
2.89147e-06
3.13162e-06
3.43458e-06
3.66336e-06
3.78219e-06
4.14479e-06
4.42845e-06
4.34282e-06
4.5231e-06
5.72492e-06
7.46663e-06
8.67441e-06
8.77239e-06
1.92198e-06
1.922e-06
1.92227e-06
1.9222e-06
1.92258e-06
1.92238e-06
1.92294e-06
1.92258e-06
1.9234e-06
1.92301e-06
1.92405e-06
1.92377e-06
1.92432e-06
1.92405e-06
1.92346e-06
1.92344e-06
1.92273e-06
1.92437e-06
1.92485e-06
1.92754e-06
1.92809e-06
1.93099e-06
1.93324e-06
1.93977e-06
1.94896e-06
1.96185e-06
1.97834e-06
1.9997e-06
2.03621e-06
2.08588e-06
2.15447e-06
2.24455e-06
2.36976e-06
2.51648e-06
2.69231e-06
2.88372e-06
3.11942e-06
3.41851e-06
3.64741e-06
3.76198e-06
4.10975e-06
4.38481e-06
4.30215e-06
4.48213e-06
5.65187e-06
7.36935e-06
8.58498e-06
8.70587e-06
1.92198e-06
1.922e-06
1.92227e-06
1.9222e-06
1.92258e-06
1.92237e-06
1.92294e-06
1.92257e-06
1.92339e-06
1.923e-06
1.92404e-06
1.92376e-06
1.92431e-06
1.92402e-06
1.92343e-06
1.9234e-06
1.92266e-06
1.92429e-06
1.92474e-06
1.92742e-06
1.92793e-06
1.93083e-06
1.93311e-06
1.93972e-06
1.949e-06
1.96177e-06
1.97805e-06
1.99932e-06
2.03563e-06
2.08511e-06
2.15316e-06
2.24246e-06
2.36677e-06
2.51258e-06
2.68662e-06
2.87492e-06
3.10621e-06
3.40162e-06
3.63118e-06
3.74192e-06
4.07393e-06
4.34133e-06
4.26369e-06
4.43944e-06
5.57388e-06
7.26602e-06
8.49291e-06
8.64237e-06
1.92198e-06
1.922e-06
1.92227e-06
1.9222e-06
1.92258e-06
1.92237e-06
1.92293e-06
1.92257e-06
1.92339e-06
1.92299e-06
1.92403e-06
1.92374e-06
1.92429e-06
1.924e-06
1.92339e-06
1.92335e-06
1.9226e-06
1.92423e-06
1.92465e-06
1.92732e-06
1.9278e-06
1.93072e-06
1.93303e-06
1.93971e-06
1.94905e-06
1.9616e-06
1.97764e-06
1.99881e-06
2.03489e-06
2.08413e-06
2.15157e-06
2.24006e-06
2.36339e-06
2.50815e-06
2.6801e-06
2.86514e-06
3.09207e-06
3.38383e-06
3.61444e-06
3.72178e-06
4.03719e-06
4.29799e-06
4.22752e-06
4.39496e-06
5.49077e-06
7.15628e-06
8.3978e-06
8.58312e-06
1.92198e-06
1.922e-06
1.92227e-06
1.92219e-06
1.92258e-06
1.92236e-06
1.92293e-06
1.92256e-06
1.92338e-06
1.92298e-06
1.92402e-06
1.92373e-06
1.92427e-06
1.92397e-06
1.92336e-06
1.92331e-06
1.92255e-06
1.92418e-06
1.92457e-06
1.92725e-06
1.9277e-06
1.93065e-06
1.93301e-06
1.93974e-06
1.94904e-06
1.96134e-06
1.97712e-06
1.99817e-06
2.034e-06
2.08292e-06
2.14971e-06
2.23735e-06
2.35962e-06
2.50314e-06
2.6727e-06
2.85442e-06
3.07706e-06
3.36512e-06
3.59707e-06
3.7015e-06
3.99942e-06
4.25444e-06
4.19306e-06
4.34795e-06
5.40144e-06
7.03818e-06
8.29696e-06
8.52623e-06
1.92198e-06
1.922e-06
1.92226e-06
1.92219e-06
1.92258e-06
1.92236e-06
1.92293e-06
1.92255e-06
1.92338e-06
1.92297e-06
1.92401e-06
1.92371e-06
1.92426e-06
1.92395e-06
1.92334e-06
1.92328e-06
1.92251e-06
1.92415e-06
1.92451e-06
1.92719e-06
1.92763e-06
1.93062e-06
1.93302e-06
1.93982e-06
1.94897e-06
1.961e-06
1.97652e-06
1.99744e-06
2.03296e-06
2.08151e-06
2.14758e-06
2.23432e-06
2.35544e-06
2.49748e-06
2.66447e-06
2.8428e-06
3.06121e-06
3.34547e-06
3.57908e-06
3.68139e-06
3.96116e-06
4.2113e-06
4.16094e-06
4.29939e-06
5.30699e-06
6.91264e-06
8.1908e-06
8.47227e-06
1.92198e-06
1.922e-06
1.92226e-06
1.92218e-06
1.92258e-06
1.92235e-06
1.92293e-06
1.92255e-06
1.92338e-06
1.92297e-06
1.92401e-06
1.9237e-06
1.92425e-06
1.92393e-06
1.92331e-06
1.92325e-06
1.92248e-06
1.92412e-06
1.92447e-06
1.92716e-06
1.92759e-06
1.93061e-06
1.93306e-06
1.93986e-06
1.94884e-06
1.96059e-06
1.97583e-06
1.9966e-06
2.0318e-06
2.0799e-06
2.14518e-06
2.23098e-06
2.35082e-06
2.49113e-06
2.65541e-06
2.83034e-06
3.0445e-06
3.32468e-06
3.5601e-06
3.66126e-06
3.92215e-06
4.16793e-06
4.13029e-06
4.2488e-06
5.20669e-06
6.77803e-06
8.07647e-06
8.41859e-06
1.92198e-06
1.92199e-06
1.92226e-06
1.92218e-06
1.92258e-06
1.92234e-06
1.92293e-06
1.92254e-06
1.92337e-06
1.92296e-06
1.924e-06
1.92368e-06
1.92424e-06
1.92391e-06
1.9233e-06
1.92323e-06
1.92245e-06
1.92411e-06
1.92444e-06
1.92716e-06
1.92757e-06
1.93063e-06
1.93314e-06
1.93985e-06
1.94867e-06
1.96012e-06
1.97509e-06
1.99568e-06
2.03051e-06
2.07809e-06
2.14253e-06
2.22731e-06
2.34573e-06
2.48411e-06
2.64558e-06
2.81712e-06
3.02702e-06
3.30276e-06
3.54003e-06
3.64136e-06
3.8826e-06
4.12417e-06
4.10065e-06
4.19635e-06
5.10061e-06
6.63355e-06
7.95175e-06
8.36258e-06
1.92198e-06
1.92199e-06
1.92226e-06
1.92217e-06
1.92258e-06
1.92234e-06
1.92293e-06
1.92253e-06
1.92337e-06
1.92295e-06
1.92399e-06
1.92367e-06
1.92422e-06
1.92389e-06
1.92328e-06
1.92322e-06
1.92243e-06
1.92411e-06
1.92442e-06
1.92716e-06
1.92757e-06
1.93068e-06
1.93318e-06
1.93981e-06
1.94844e-06
1.9596e-06
1.97429e-06
1.9947e-06
2.0291e-06
2.07611e-06
2.13964e-06
2.22332e-06
2.34013e-06
2.47642e-06
2.63503e-06
2.80318e-06
3.00875e-06
3.27962e-06
3.51872e-06
3.62199e-06
3.84288e-06
4.08012e-06
4.07191e-06
4.1428e-06
4.98967e-06
6.47958e-06
7.81564e-06
8.30263e-06
1.92198e-06
1.92199e-06
1.92226e-06
1.92217e-06
1.92258e-06
1.92233e-06
1.92292e-06
1.92253e-06
1.92336e-06
1.92294e-06
1.92399e-06
1.92366e-06
1.92422e-06
1.92388e-06
1.92327e-06
1.9232e-06
1.92242e-06
1.92412e-06
1.92442e-06
1.92718e-06
1.92759e-06
1.93071e-06
1.9332e-06
1.93973e-06
1.94819e-06
1.95905e-06
1.97345e-06
1.99365e-06
2.0276e-06
2.07397e-06
2.13651e-06
2.219e-06
2.33403e-06
2.46811e-06
2.62378e-06
2.78864e-06
2.98968e-06
3.25517e-06
3.4959e-06
3.60339e-06
3.80319e-06
4.03555e-06
4.04348e-06
4.08864e-06
4.87447e-06
6.31607e-06
7.6665e-06
8.23643e-06
1.92198e-06
1.92199e-06
1.92226e-06
1.92216e-06
1.92258e-06
1.92233e-06
1.92292e-06
1.92252e-06
1.92336e-06
1.92293e-06
1.92398e-06
1.92365e-06
1.92421e-06
1.92386e-06
1.92326e-06
1.9232e-06
1.92242e-06
1.92413e-06
1.92442e-06
1.92719e-06
1.92759e-06
1.93072e-06
1.9332e-06
1.93963e-06
1.9479e-06
1.95846e-06
1.97259e-06
1.99257e-06
2.026e-06
2.07168e-06
2.13318e-06
2.21436e-06
2.32743e-06
2.45917e-06
2.61195e-06
2.77361e-06
2.96989e-06
3.22952e-06
3.47159e-06
3.58558e-06
3.76421e-06
3.99084e-06
4.01538e-06
4.03511e-06
4.75658e-06
6.14428e-06
7.50407e-06
8.16258e-06
1.92198e-06
1.92198e-06
1.92226e-06
1.92216e-06
1.92258e-06
1.92232e-06
1.92292e-06
1.92251e-06
1.92336e-06
1.92292e-06
1.92397e-06
1.92363e-06
1.9242e-06
1.92385e-06
1.92325e-06
1.92319e-06
1.92242e-06
1.92415e-06
1.92441e-06
1.9272e-06
1.92757e-06
1.93071e-06
1.93318e-06
1.9395e-06
1.94759e-06
1.95786e-06
1.97172e-06
1.99145e-06
2.02434e-06
2.06927e-06
2.12964e-06
2.2094e-06
2.32036e-06
2.44967e-06
2.5996e-06
2.75817e-06
2.94949e-06
3.2028e-06
3.44586e-06
3.56881e-06
3.7267e-06
3.94645e-06
3.98764e-06
3.98353e-06
4.63778e-06
5.96581e-06
7.32845e-06
8.07946e-06
1.92198e-06
1.92198e-06
1.92226e-06
1.92215e-06
1.92258e-06
1.92232e-06
1.92292e-06
1.92251e-06
1.92335e-06
1.92291e-06
1.92397e-06
1.92362e-06
1.92419e-06
1.92384e-06
1.92324e-06
1.92319e-06
1.92242e-06
1.92416e-06
1.92439e-06
1.92719e-06
1.92754e-06
1.93069e-06
1.93314e-06
1.93935e-06
1.94728e-06
1.95726e-06
1.97086e-06
1.99032e-06
2.02262e-06
2.06674e-06
2.12592e-06
2.20415e-06
2.31285e-06
2.43968e-06
2.58682e-06
2.74244e-06
2.92855e-06
3.17513e-06
3.41871e-06
3.55339e-06
3.69126e-06
3.90272e-06
3.9601e-06
3.93516e-06
4.51979e-06
5.7823e-06
7.13973e-06
7.98508e-06
1.92198e-06
1.92198e-06
1.92225e-06
1.92215e-06
1.92258e-06
1.92231e-06
1.92292e-06
1.9225e-06
1.92335e-06
1.9229e-06
1.92396e-06
1.92361e-06
1.92419e-06
1.92383e-06
1.92324e-06
1.9232e-06
1.92241e-06
1.92417e-06
1.92437e-06
1.92717e-06
1.92751e-06
1.93065e-06
1.93308e-06
1.93918e-06
1.94695e-06
1.95666e-06
1.97e-06
1.98919e-06
2.02085e-06
2.06412e-06
2.12204e-06
2.19863e-06
2.30496e-06
2.42926e-06
2.57365e-06
2.72644e-06
2.90729e-06
3.14665e-06
3.39009e-06
3.53746e-06
3.65832e-06
3.85974e-06
3.93224e-06
3.8908e-06
4.40389e-06
5.59502e-06
6.93757e-06
7.8762e-06
1.92198e-06
1.92198e-06
1.92225e-06
1.92214e-06
1.92258e-06
1.9223e-06
1.92292e-06
1.92249e-06
1.92334e-06
1.92289e-06
1.92395e-06
1.9236e-06
1.92418e-06
1.92382e-06
1.92324e-06
1.9232e-06
1.92241e-06
1.92417e-06
1.92434e-06
1.92715e-06
1.92746e-06
1.9306e-06
1.93302e-06
1.93901e-06
1.94663e-06
1.95608e-06
1.96918e-06
1.98807e-06
2.01906e-06
2.06142e-06
2.11802e-06
2.19288e-06
2.29673e-06
2.41848e-06
2.56014e-06
2.71019e-06
2.8858e-06
3.11746e-06
3.35998e-06
3.52003e-06
3.62839e-06
3.81781e-06
3.90372e-06
3.85137e-06
4.29162e-06
5.40576e-06
6.72248e-06
7.74968e-06
1.92198e-06
1.92198e-06
1.92225e-06
1.92214e-06
1.92258e-06
1.9223e-06
1.92291e-06
1.92248e-06
1.92334e-06
1.92288e-06
1.92395e-06
1.92358e-06
1.92418e-06
1.92381e-06
1.92324e-06
1.92321e-06
1.92241e-06
1.92417e-06
1.92431e-06
1.92712e-06
1.9274e-06
1.93054e-06
1.93295e-06
1.93883e-06
1.94631e-06
1.95552e-06
1.96838e-06
1.98697e-06
2.01727e-06
2.05867e-06
2.11391e-06
2.18694e-06
2.28823e-06
2.40739e-06
2.54632e-06
2.69364e-06
2.86414e-06
3.08752e-06
3.32815e-06
3.50043e-06
3.60163e-06
3.777e-06
3.87397e-06
3.81741e-06
4.18421e-06
5.21621e-06
6.49515e-06
7.60223e-06
1.92198e-06
1.92197e-06
1.92225e-06
1.92213e-06
1.92258e-06
1.92229e-06
1.92291e-06
1.92247e-06
1.92333e-06
1.92287e-06
1.92394e-06
1.92357e-06
1.92417e-06
1.92381e-06
1.92324e-06
1.92323e-06
1.92241e-06
1.92418e-06
1.92428e-06
1.92708e-06
1.92734e-06
1.93047e-06
1.93287e-06
1.93865e-06
1.94601e-06
1.95499e-06
1.96763e-06
1.98591e-06
2.01548e-06
2.05588e-06
2.10972e-06
2.18087e-06
2.27951e-06
2.39603e-06
2.53221e-06
2.67679e-06
2.8423e-06
3.05703e-06
3.29456e-06
3.47811e-06
3.57826e-06
3.73745e-06
3.84239e-06
3.789e-06
4.08251e-06
5.02789e-06
6.25649e-06
7.43025e-06
1.92198e-06
1.92197e-06
1.92225e-06
1.92213e-06
1.92257e-06
1.92228e-06
1.92291e-06
1.92247e-06
1.92333e-06
1.92286e-06
1.92394e-06
1.92356e-06
1.92417e-06
1.9238e-06
1.92325e-06
1.92324e-06
1.92241e-06
1.92418e-06
1.92424e-06
1.92705e-06
1.92728e-06
1.93041e-06
1.9328e-06
1.93848e-06
1.94572e-06
1.95451e-06
1.96693e-06
1.98489e-06
2.01371e-06
2.05309e-06
2.1055e-06
2.17471e-06
2.27063e-06
2.38444e-06
2.51784e-06
2.65963e-06
2.8202e-06
3.02618e-06
3.25923e-06
3.4527e-06
3.55872e-06
3.69982e-06
3.80921e-06
3.76679e-06
3.98805e-06
4.84349e-06
6.00947e-06
7.2326e-06
1.92198e-06
1.92197e-06
1.92225e-06
1.92212e-06
1.92257e-06
1.92228e-06
1.92291e-06
1.92246e-06
1.92332e-06
1.92285e-06
1.92393e-06
1.92355e-06
1.92417e-06
1.9238e-06
1.92325e-06
1.92326e-06
1.92242e-06
1.92418e-06
1.92421e-06
1.92701e-06
1.92722e-06
1.93034e-06
1.93273e-06
1.93831e-06
1.94546e-06
1.95407e-06
1.96628e-06
1.98392e-06
2.01199e-06
2.05032e-06
2.10128e-06
2.16852e-06
2.26165e-06
2.37267e-06
2.50321e-06
2.64219e-06
2.79779e-06
2.99509e-06
3.22213e-06
3.42367e-06
3.54148e-06
3.66445e-06
3.7743e-06
3.75124e-06
3.90136e-06
4.66468e-06
5.75643e-06
7.00922e-06
1.92198e-06
1.92196e-06
1.92225e-06
1.92212e-06
1.92257e-06
1.92227e-06
1.92291e-06
1.92245e-06
1.92332e-06
1.92284e-06
1.92392e-06
1.92353e-06
1.92416e-06
1.92379e-06
1.92326e-06
1.92328e-06
1.92242e-06
1.92419e-06
1.92418e-06
1.92697e-06
1.92717e-06
1.93027e-06
1.93266e-06
1.93816e-06
1.94523e-06
1.95368e-06
1.9657e-06
1.983e-06
2.01032e-06
2.04759e-06
2.09711e-06
2.16236e-06
2.25264e-06
2.36077e-06
2.48837e-06
2.62452e-06
2.77513e-06
2.9639e-06
3.18353e-06
3.3909e-06
3.52567e-06
3.63232e-06
3.73843e-06
3.73225e-06
3.82349e-06
4.494e-06
5.50137e-06
6.76223e-06
1.92198e-06
1.92196e-06
1.92224e-06
1.92211e-06
1.92257e-06
1.92226e-06
1.9229e-06
1.92244e-06
1.92331e-06
1.92282e-06
1.92392e-06
1.92352e-06
1.92416e-06
1.92379e-06
1.92327e-06
1.92329e-06
1.92244e-06
1.9242e-06
1.92416e-06
1.92694e-06
1.92712e-06