/*--------------------------------*- C++ -*----------------------------------*\
  =========                 |
  \\      /  F ield         | OpenFOAM: The Open Source CFD Toolbox
   \\    /   O peration     | Website:  https://openfoam.org
    \\  /    A nd           | Version:  10
     \\/     M anipulation  |
\*---------------------------------------------------------------------------*/
FoamFile
{
    format      ascii;
    class       volScalarField;
    location    "10";
    object      nuTilda;
}
// * * * * * * * * * * * * * * * * * * * * * * * * * * * * * * * * * * * * * //

dimensions      [0 2 -1 0 0 0 0];

internalField   nonuniform List<scalar> 
38016
(
2.61001e-05
2.61007e-05
2.61068e-05
2.61019e-05
2.61052e-05
2.61077e-05
2.61124e-05
2.61048e-05
2.61169e-05
2.61103e-05
2.61155e-05
2.61084e-05
2.61247e-05
2.61014e-05
2.61316e-05
2.61062e-05
2.61279e-05
2.61157e-05
2.61301e-05
2.61343e-05
2.61503e-05
2.61671e-05
2.61912e-05
2.62302e-05
2.62689e-05
2.63285e-05
2.6364e-05
2.64141e-05
2.64972e-05
2.66652e-05
2.68134e-05
2.70549e-05
2.73913e-05
2.77188e-05
2.80689e-05
2.85673e-05
2.92069e-05
3.01905e-05
3.0633e-05
3.10004e-05
3.14491e-05
3.28605e-05
3.24503e-05
3.34253e-05
3.60504e-05
3.87815e-05
3.99839e-05
3.96186e-05
2.61001e-05
2.61006e-05
2.61066e-05
2.61017e-05
2.6105e-05
2.61076e-05
2.61123e-05
2.61047e-05
2.61169e-05
2.61101e-05
2.61154e-05
2.61082e-05
2.61246e-05
2.61014e-05
2.61312e-05
2.61059e-05
2.61272e-05
2.61149e-05
2.6129e-05
2.61329e-05
2.61487e-05
2.61652e-05
2.61889e-05
2.62274e-05
2.62655e-05
2.63245e-05
2.63591e-05
2.64088e-05
2.64919e-05
2.66603e-05
2.68087e-05
2.70505e-05
2.73879e-05
2.77164e-05
2.80657e-05
2.85635e-05
2.92012e-05
3.01885e-05
3.06296e-05
3.09988e-05
3.14414e-05
3.28489e-05
3.2439e-05
3.34121e-05
3.60295e-05
3.87604e-05
3.99662e-05
3.95899e-05
2.61016e-05
2.6101e-05
2.61031e-05
2.61029e-05
2.61054e-05
2.61063e-05
2.61081e-05
2.611e-05
2.61106e-05
2.6113e-05
2.61125e-05
2.61122e-05
2.6112e-05
2.6109e-05
2.61117e-05
2.6109e-05
2.61145e-05
2.6118e-05
2.61293e-05
2.61426e-05
2.61571e-05
2.61788e-05
2.61967e-05
2.62321e-05
2.62659e-05
2.63217e-05
2.63683e-05
2.64447e-05
2.65143e-05
2.6649e-05
2.67888e-05
2.70201e-05
2.73283e-05
2.76792e-05
2.80819e-05
2.86159e-05
2.93008e-05
3.01155e-05
3.05668e-05
3.0866e-05
3.15634e-05
3.24911e-05
3.25613e-05
3.33778e-05
3.6014e-05
3.87697e-05
3.99573e-05
3.95893e-05
2.61016e-05
2.6101e-05
2.6103e-05
2.61028e-05
2.61053e-05
2.61063e-05
2.61081e-05
2.611e-05
2.61106e-05
2.61129e-05
2.61123e-05
2.61122e-05
2.6112e-05
2.61089e-05
2.61116e-05
2.61088e-05
2.61144e-05
2.61177e-05
2.6129e-05
2.61421e-05
2.61563e-05
2.61777e-05
2.6195e-05
2.62296e-05
2.62626e-05
2.63176e-05
2.63637e-05
2.64398e-05
2.65093e-05
2.66441e-05
2.67841e-05
2.70161e-05
2.73243e-05
2.76743e-05
2.80773e-05
2.86108e-05
2.92996e-05
3.01115e-05
3.05636e-05
3.08531e-05
3.15749e-05
3.24775e-05
3.25694e-05
3.3369e-05
3.60225e-05
3.87768e-05
3.99453e-05
3.95624e-05
2.61016e-05
2.6101e-05
2.6103e-05
2.61028e-05
2.61053e-05
2.61063e-05
2.61081e-05
2.611e-05
2.61106e-05
2.61129e-05
2.61123e-05
2.61121e-05
2.61119e-05
2.61088e-05
2.61115e-05
2.61086e-05
2.61141e-05
2.61173e-05
2.61284e-05
2.61414e-05
2.61552e-05
2.61762e-05
2.61931e-05
2.62271e-05
2.62592e-05
2.63133e-05
2.63587e-05
2.64345e-05
2.65038e-05
2.66388e-05
2.67792e-05
2.70116e-05
2.73202e-05
2.76703e-05
2.80735e-05
2.86063e-05
2.92968e-05
3.01086e-05
3.05632e-05
3.08421e-05
3.15944e-05
3.24587e-05
3.25734e-05
3.33627e-05
3.60353e-05
3.87885e-05
3.99357e-05
3.9538e-05
2.61016e-05
2.61009e-05
2.6103e-05
2.61028e-05
2.61053e-05
2.61063e-05
2.61081e-05
2.611e-05
2.61106e-05
2.61129e-05
2.61123e-05
2.61121e-05
2.61118e-05
2.61087e-05
2.61114e-05
2.61084e-05
2.61138e-05
2.61169e-05
2.61278e-05
2.61406e-05
2.61541e-05
2.61748e-05
2.61911e-05
2.62244e-05
2.62557e-05
2.6309e-05
2.63537e-05
2.64291e-05
2.64983e-05
2.66335e-05
2.67741e-05
2.7007e-05
2.7316e-05
2.76662e-05
2.80694e-05
2.86014e-05
2.9294e-05
3.01055e-05
3.05639e-05
3.08285e-05
3.16124e-05
3.24418e-05
3.25717e-05
3.33572e-05
3.60482e-05
3.88004e-05
3.9926e-05
3.95154e-05
2.61016e-05
2.61009e-05
2.6103e-05
2.61028e-05
2.61053e-05
2.61063e-05
2.61081e-05
2.611e-05
2.61105e-05
2.61129e-05
2.61122e-05
2.61121e-05
2.61118e-05
2.61086e-05
2.61112e-05
2.61082e-05
2.61135e-05
2.61165e-05
2.61272e-05
2.61397e-05
2.6153e-05
2.61733e-05
2.6189e-05
2.62217e-05
2.62521e-05
2.63045e-05
2.63485e-05
2.64235e-05
2.64926e-05
2.6628e-05
2.67689e-05
2.70024e-05
2.73117e-05
2.7662e-05
2.80654e-05
2.85962e-05
2.92913e-05
3.01022e-05
3.05647e-05
3.08146e-05
3.16257e-05
3.24283e-05
3.25637e-05
3.33517e-05
3.60614e-05
3.88119e-05
3.99174e-05
3.94922e-05
2.61016e-05
2.61009e-05
2.6103e-05
2.61028e-05
2.61053e-05
2.61063e-05
2.6108e-05
2.611e-05
2.61105e-05
2.61128e-05
2.61122e-05
2.6112e-05
2.61117e-05
2.61085e-05
2.61111e-05
2.61079e-05
2.61132e-05
2.6116e-05
2.61266e-05
2.61389e-05
2.61518e-05
2.61717e-05
2.61869e-05
2.62189e-05
2.62484e-05
2.63e-05
2.63433e-05
2.64179e-05
2.64868e-05
2.66223e-05
2.67636e-05
2.69976e-05
2.73074e-05
2.76576e-05
2.80613e-05
2.85909e-05
2.92888e-05
3.00986e-05
3.05648e-05
3.08014e-05
3.16337e-05
3.24181e-05
3.2552e-05
3.33451e-05
3.60755e-05
3.8823e-05
3.99088e-05
3.94684e-05
2.61016e-05
2.61009e-05
2.6103e-05
2.61028e-05
2.61053e-05
2.61063e-05
2.6108e-05
2.611e-05
2.61105e-05
2.61128e-05
2.61122e-05
2.6112e-05
2.61116e-05
2.61083e-05
2.61109e-05
2.61077e-05
2.61128e-05
2.61155e-05
2.61259e-05
2.6138e-05
2.61506e-05
2.61701e-05
2.61847e-05
2.6216e-05
2.62447e-05
2.62954e-05
2.6338e-05
2.64122e-05
2.64809e-05
2.66167e-05
2.67582e-05
2.69928e-05
2.7303e-05
2.76532e-05
2.80571e-05
2.85856e-05
2.92862e-05
3.00948e-05
3.0564e-05
3.07891e-05
3.16367e-05
3.24108e-05
3.25393e-05
3.33362e-05
3.60887e-05
3.88359e-05
3.99034e-05
3.94481e-05
2.61016e-05
2.61009e-05
2.6103e-05
2.61028e-05
2.61053e-05
2.61063e-05
2.6108e-05
2.611e-05
2.61105e-05
2.61128e-05
2.61121e-05
2.61119e-05
2.61115e-05
2.61082e-05
2.61107e-05
2.61074e-05
2.61125e-05
2.6115e-05
2.61252e-05
2.6137e-05
2.61493e-05
2.61684e-05
2.61824e-05
2.62131e-05
2.62409e-05
2.62907e-05
2.63326e-05
2.64064e-05
2.6475e-05
2.66109e-05
2.67528e-05
2.69879e-05
2.72985e-05
2.76487e-05
2.80531e-05
2.85804e-05
2.92834e-05
3.00911e-05
3.05621e-05
3.07776e-05
3.16357e-05
3.24045e-05
3.25267e-05
3.33264e-05
3.60999e-05
3.88488e-05
3.98994e-05
3.94294e-05
2.61016e-05
2.61009e-05
2.6103e-05
2.61028e-05
2.61053e-05
2.61063e-05
2.6108e-05
2.611e-05
2.61105e-05
2.61128e-05
2.61121e-05
2.61119e-05
2.61114e-05
2.61081e-05
2.61105e-05
2.61072e-05
2.61121e-05
2.61145e-05
2.61245e-05
2.61361e-05
2.6148e-05
2.61667e-05
2.61801e-05
2.62101e-05
2.62371e-05
2.6286e-05
2.63272e-05
2.64007e-05
2.64691e-05
2.66051e-05
2.67474e-05
2.6983e-05
2.72941e-05
2.76443e-05
2.8049e-05
2.85755e-05
2.92805e-05
3.00876e-05
3.05594e-05
3.07671e-05
3.16321e-05
3.2398e-05
3.25137e-05
3.3317e-05
3.61104e-05
3.88618e-05
3.98971e-05
3.94113e-05
2.61016e-05
2.61009e-05
2.6103e-05
2.61028e-05
2.61053e-05
2.61063e-05
2.6108e-05
2.611e-05
2.61105e-05
2.61128e-05
2.6112e-05
2.61118e-05
2.61114e-05
2.6108e-05
2.61104e-05
2.61069e-05
2.61117e-05
2.6114e-05
2.61237e-05
2.61351e-05
2.61466e-05
2.61649e-05
2.61778e-05
2.62071e-05
2.62332e-05
2.62813e-05
2.63218e-05
2.63949e-05
2.64632e-05
2.65994e-05
2.67419e-05
2.69781e-05
2.72896e-05
2.76398e-05
2.80451e-05
2.85708e-05
2.92776e-05
3.00842e-05
3.05558e-05
3.07573e-05
3.16267e-05
3.23912e-05
3.25004e-05
3.33077e-05
3.61212e-05
3.88772e-05
3.99024e-05
3.94009e-05
2.61016e-05
2.61009e-05
2.6103e-05
2.61028e-05
2.61053e-05
2.61063e-05
2.6108e-05
2.611e-05
2.61104e-05
2.61128e-05
2.6112e-05
2.61118e-05
2.61113e-05
2.61079e-05
2.61102e-05
2.61066e-05
2.61114e-05
2.61135e-05
2.6123e-05
2.61341e-05
2.61453e-05
2.61631e-05
2.61755e-05
2.62041e-05
2.62294e-05
2.62767e-05
2.63165e-05
2.63892e-05
2.64573e-05
2.65936e-05
2.67365e-05
2.69733e-05
2.72852e-05
2.76354e-05
2.80413e-05
2.85663e-05
2.92747e-05
3.00808e-05
3.05514e-05
3.07478e-05
3.16204e-05
3.23839e-05
3.24864e-05
3.32969e-05
3.61282e-05
3.88881e-05
3.99051e-05
3.9386e-05
2.61016e-05
2.61009e-05
2.6103e-05
2.61028e-05
2.61052e-05
2.61063e-05
2.6108e-05
2.611e-05
2.61104e-05
2.61127e-05
2.6112e-05
2.61117e-05
2.61112e-05
2.61077e-05
2.611e-05
2.61064e-05
2.6111e-05
2.61129e-05
2.61222e-05
2.61331e-05
2.61439e-05
2.61613e-05
2.61731e-05
2.62011e-05
2.62256e-05
2.62721e-05
2.63113e-05
2.63836e-05
2.64515e-05
2.6588e-05
2.67313e-05
2.69685e-05
2.72809e-05
2.76311e-05
2.80377e-05
2.85621e-05
2.92718e-05
3.00774e-05
3.05463e-05
3.07391e-05
3.16142e-05
3.23761e-05
3.24728e-05
3.32873e-05
3.61353e-05
3.88978e-05
3.99071e-05
3.9365e-05
2.61016e-05
2.61009e-05
2.6103e-05
2.61028e-05
2.61052e-05
2.61062e-05
2.6108e-05
2.611e-05
2.61104e-05
2.61127e-05
2.61119e-05
2.61116e-05
2.61111e-05
2.61076e-05
2.61098e-05
2.61061e-05
2.61105e-05
2.61123e-05
2.61214e-05
2.6132e-05
2.61425e-05
2.61595e-05
2.61707e-05
2.61981e-05
2.62218e-05
2.62676e-05
2.63062e-05
2.63781e-05
2.64459e-05
2.65826e-05
2.67261e-05
2.69638e-05
2.72767e-05
2.76269e-05
2.80344e-05
2.85582e-05
2.92688e-05
3.0074e-05
3.05412e-05
3.07313e-05
3.16077e-05
3.23667e-05
3.24588e-05
3.32798e-05
3.61459e-05
3.89146e-05
3.99227e-05
3.93592e-05
2.61016e-05
2.61009e-05
2.6103e-05
2.61028e-05
2.61052e-05
2.61062e-05
2.6108e-05
2.611e-05
2.61104e-05
2.61127e-05
2.61119e-05
2.61116e-05
2.6111e-05
2.61075e-05
2.61096e-05
2.61058e-05
2.61101e-05
2.61118e-05
2.61206e-05
2.6131e-05
2.6141e-05
2.61577e-05
2.61684e-05
2.61951e-05
2.62181e-05
2.62632e-05
2.63012e-05
2.63728e-05
2.64406e-05
2.65773e-05
2.67212e-05
2.69594e-05
2.72727e-05
2.7623e-05
2.80314e-05
2.85547e-05
2.92658e-05
3.00707e-05
3.05367e-05
3.07244e-05
3.16008e-05
3.23553e-05
3.2443e-05
3.32691e-05
3.61485e-05
3.89203e-05
3.9929e-05
3.93373e-05
2.61016e-05
2.61009e-05
2.6103e-05
2.61028e-05
2.61052e-05
2.61062e-05
2.6108e-05
2.611e-05
2.61104e-05
2.61127e-05
2.61118e-05
2.61115e-05
2.61109e-05
2.61073e-05
2.61094e-05
2.61055e-05
2.61097e-05
2.61112e-05
2.61198e-05
2.61299e-05
2.61396e-05
2.61558e-05
2.6166e-05
2.61922e-05
2.62145e-05
2.6259e-05
2.62965e-05
2.63677e-05
2.64354e-05
2.65722e-05
2.67166e-05
2.69552e-05
2.7269e-05
2.76193e-05
2.80287e-05
2.85515e-05
2.92628e-05
3.00676e-05
3.05327e-05
3.07181e-05
3.15936e-05
3.23446e-05
3.24302e-05
3.32617e-05
3.61523e-05
3.89283e-05
3.99409e-05
3.93217e-05
2.61016e-05
2.61009e-05
2.6103e-05
2.61028e-05
2.61052e-05
2.61062e-05
2.6108e-05
2.61099e-05
2.61103e-05
2.61127e-05
2.61118e-05
2.61115e-05
2.61108e-05
2.61072e-05
2.61092e-05
2.61052e-05
2.61093e-05
2.61106e-05
2.6119e-05
2.61289e-05
2.61382e-05
2.6154e-05
2.61637e-05
2.61893e-05
2.6211e-05
2.6255e-05
2.6292e-05
2.63629e-05
2.64306e-05
2.65675e-05
2.67122e-05
2.69513e-05
2.72657e-05
2.76161e-05
2.80264e-05
2.85487e-05
2.92598e-05
3.00647e-05
3.05291e-05
3.07119e-05
3.15852e-05
3.23326e-05
3.24178e-05
3.32547e-05
3.61554e-05
3.8939e-05
3.99615e-05
3.93166e-05
2.61016e-05
2.61009e-05
2.6103e-05
2.61028e-05
2.61052e-05
2.61062e-05
2.6108e-05
2.61099e-05
2.61103e-05
2.61126e-05
2.61117e-05
2.61114e-05
2.61107e-05
2.6107e-05
2.6109e-05
2.61049e-05
2.61089e-05
2.611e-05
2.61182e-05
2.61278e-05
2.61368e-05
2.61523e-05
2.61615e-05
2.61866e-05
2.62077e-05
2.62512e-05
2.62878e-05
2.63584e-05
2.64261e-05
2.65631e-05
2.67083e-05
2.69478e-05
2.72629e-05
2.76134e-05
2.80244e-05
2.85461e-05
2.9257e-05
3.00621e-05
3.05263e-05
3.0706e-05
3.15753e-05
3.2318e-05
3.24013e-05
3.32402e-05
3.61458e-05
3.89356e-05
3.9968e-05
3.92948e-05
2.61016e-05
2.61009e-05
2.6103e-05
2.61028e-05
2.61052e-05
2.61062e-05
2.6108e-05
2.61099e-05
2.61103e-05
2.61126e-05
2.61117e-05
2.61113e-05
2.61106e-05
2.61069e-05
2.61087e-05
2.61046e-05
2.61085e-05
2.61095e-05
2.61175e-05
2.61268e-05
2.61354e-05
2.61505e-05
2.61593e-05
2.61839e-05
2.62046e-05
2.62476e-05
2.62839e-05
2.63543e-05
2.64221e-05
2.65591e-05
2.67047e-05
2.69448e-05
2.72605e-05
2.76112e-05
2.80228e-05
2.85437e-05
2.92546e-05
3.00602e-05
3.05241e-05
3.07007e-05
3.15656e-05
3.23046e-05
3.23878e-05
3.32288e-05
3.61387e-05
3.89393e-05
3.99821e-05
3.92857e-05
2.61016e-05
2.61009e-05
2.6103e-05
2.61028e-05
2.61052e-05
2.61062e-05
2.6108e-05
2.61099e-05
2.61103e-05
2.61126e-05
2.61116e-05
2.61113e-05
2.61105e-05
2.61068e-05
2.61085e-05
2.61043e-05
2.6108e-05
2.61089e-05
2.61167e-05
2.61258e-05
2.61341e-05
2.61488e-05
2.61572e-05
2.61814e-05
2.62016e-05
2.62443e-05
2.62804e-05
2.63506e-05
2.64185e-05
2.65556e-05
2.67017e-05
2.69423e-05
2.72588e-05
2.76094e-05
2.80214e-05
2.85414e-05
2.92527e-05
3.00593e-05
3.05221e-05
3.06945e-05
3.1554e-05
3.22891e-05
3.23725e-05
3.32142e-05
3.61272e-05
3.89417e-05
3.99919e-05
3.92734e-05
2.61016e-05
2.61009e-05
2.6103e-05
2.61028e-05
2.61052e-05
2.61062e-05
2.6108e-05
2.61099e-05
2.61103e-05
2.61126e-05
2.61116e-05
2.61112e-05
2.61104e-05
2.61066e-05
2.61083e-05
2.6104e-05
2.61076e-05
2.61084e-05
2.61159e-05
2.61248e-05
2.61328e-05
2.61472e-05
2.61552e-05
2.6179e-05
2.61989e-05
2.62414e-05
2.62772e-05
2.63474e-05
2.64155e-05
2.65527e-05
2.66993e-05
2.69404e-05
2.72577e-05
2.76081e-05
2.80204e-05
2.85393e-05
2.92512e-05
3.00594e-05
3.05209e-05
3.06876e-05
3.15406e-05
3.22709e-05
3.23519e-05
3.31914e-05
3.61084e-05
3.89441e-05
3.9993e-05
3.92501e-05
2.61016e-05
2.61009e-05
2.6103e-05
2.61027e-05
2.61052e-05
2.61062e-05
2.61079e-05
2.61099e-05
2.61102e-05
2.61125e-05
2.61115e-05
2.61111e-05
2.61103e-05
2.61065e-05
2.61081e-05
2.61037e-05
2.61072e-05
2.61078e-05
2.61152e-05
2.61238e-05
2.61315e-05
2.61456e-05
2.61532e-05
2.61767e-05
2.61964e-05
2.62388e-05
2.62746e-05
2.63447e-05
2.6413e-05
2.65503e-05
2.66976e-05
2.69393e-05
2.72574e-05
2.76074e-05
2.80199e-05
2.85377e-05
2.92504e-05
3.00606e-05
3.05206e-05
3.06811e-05
3.15274e-05
3.22531e-05
3.23303e-05
3.31658e-05
3.60901e-05
3.89447e-05
3.99957e-05
3.92257e-05
2.61016e-05
2.61009e-05
2.6103e-05
2.61027e-05
2.61052e-05
2.61062e-05
2.61079e-05
2.61099e-05
2.61102e-05
2.61125e-05
2.61115e-05
2.61111e-05
2.61102e-05
2.61063e-05
2.61079e-05
2.61035e-05
2.61068e-05
2.61073e-05
2.61145e-05
2.61229e-05
2.61303e-05
2.61442e-05
2.61514e-05
2.61747e-05
2.61942e-05
2.62365e-05
2.62724e-05
2.63425e-05
2.64113e-05
2.65486e-05
2.66966e-05
2.69388e-05
2.72578e-05
2.76072e-05
2.80199e-05
2.85367e-05
2.92502e-05
3.00622e-05
3.05208e-05
3.06735e-05
3.15121e-05
3.22325e-05
3.23049e-05
3.31348e-05
3.60692e-05
3.89375e-05
3.99903e-05
3.91896e-05
2.61016e-05
2.61009e-05
2.6103e-05
2.61027e-05
2.61052e-05
2.61062e-05
2.61079e-05
2.61099e-05
2.61102e-05
2.61125e-05
2.61114e-05
2.6111e-05
2.61101e-05
2.61062e-05
2.61077e-05
2.61032e-05
2.61065e-05
2.61068e-05
2.61138e-05
2.61221e-05
2.61292e-05
2.61428e-05
2.61498e-05
2.61728e-05
2.61923e-05
2.62347e-05
2.62707e-05
2.63409e-05
2.64102e-05
2.65477e-05
2.66965e-05
2.69393e-05
2.72589e-05
2.76079e-05
2.80206e-05
2.85368e-05
2.92504e-05
3.00628e-05
3.0522e-05
3.06649e-05
3.14937e-05
3.22081e-05
3.22749e-05
3.30985e-05
3.60465e-05
3.89214e-05
3.9977e-05
3.91431e-05
2.61016e-05
2.61009e-05
2.6103e-05
2.61027e-05
2.61052e-05
2.61062e-05
2.61079e-05
2.61099e-05
2.61102e-05
2.61125e-05
2.61114e-05
2.61109e-05
2.611e-05
2.61061e-05
2.61075e-05
2.61029e-05
2.61061e-05
2.61063e-05
2.61131e-05
2.61212e-05
2.61281e-05
2.61415e-05
2.61482e-05
2.61712e-05
2.61907e-05
2.62332e-05
2.62696e-05
2.63399e-05
2.64098e-05
2.65476e-05
2.66973e-05
2.69398e-05
2.72592e-05
2.76081e-05
2.80209e-05
2.85371e-05
2.92495e-05
3.00623e-05
3.0524e-05
3.06567e-05
3.14741e-05
3.21819e-05
3.2243e-05
3.30596e-05
3.60187e-05
3.88962e-05
3.99565e-05
3.90908e-05
2.61016e-05
2.61009e-05
2.6103e-05
2.61027e-05
2.61052e-05
2.61062e-05
2.61079e-05
2.61099e-05
2.61101e-05
2.61124e-05
2.61113e-05
2.61109e-05
2.61099e-05
2.61059e-05
2.61073e-05
2.61027e-05
2.61058e-05
2.61059e-05
2.61125e-05
2.61205e-05
2.61271e-05
2.61403e-05
2.61468e-05
2.61697e-05
2.61894e-05
2.62322e-05
2.6269e-05
2.63396e-05
2.64103e-05
2.65479e-05
2.6698e-05
2.69398e-05
2.72589e-05
2.76079e-05
2.80209e-05
2.8537e-05
2.92473e-05
3.00598e-05
3.05244e-05
3.06481e-05
3.14527e-05
3.21543e-05
3.22109e-05
3.30211e-05
3.59841e-05
3.88625e-05
3.993e-05
3.90389e-05
2.61016e-05
2.61009e-05
2.6103e-05
2.61027e-05
2.61052e-05
2.61062e-05
2.61079e-05
2.61099e-05
2.61101e-05
2.61124e-05
2.61113e-05
2.61108e-05
2.61098e-05
2.61058e-05
2.61072e-05
2.61024e-05
2.61055e-05
2.61055e-05
2.6112e-05
2.61198e-05
2.61261e-05
2.61392e-05
2.61456e-05
2.61685e-05
2.61884e-05
2.62316e-05
2.62689e-05
2.63397e-05
2.64105e-05
2.65476e-05
2.66981e-05
2.6939e-05
2.72577e-05
2.76072e-05
2.80206e-05
2.85362e-05
2.92434e-05
3.00552e-05
3.05229e-05
3.06383e-05
3.14276e-05
3.2123e-05
3.21767e-05
3.29819e-05
3.59401e-05
3.88173e-05
3.98957e-05
3.89898e-05
2.61016e-05
2.61009e-05
2.6103e-05
2.61027e-05
2.61052e-05
2.61062e-05
2.61079e-05
2.61099e-05
2.61101e-05
2.61124e-05
2.61112e-05
2.61107e-05
2.61097e-05
2.61057e-05
2.6107e-05
2.61022e-05
2.61052e-05
2.61051e-05
2.61115e-05
2.61192e-05
2.61253e-05
2.61382e-05
2.61445e-05
2.61675e-05
2.61878e-05
2.62315e-05
2.6269e-05
2.63392e-05
2.64101e-05
2.65466e-05
2.66975e-05
2.69375e-05
2.72558e-05
2.76061e-05
2.80199e-05
2.85343e-05
2.92377e-05
3.00485e-05
3.05203e-05
3.06282e-05
3.13997e-05
3.2089e-05
3.21416e-05
3.29436e-05
3.58864e-05
3.87595e-05
3.9853e-05
3.8946e-05
2.61016e-05
2.61008e-05
2.6103e-05
2.61027e-05
2.61052e-05
2.61062e-05
2.61079e-05
2.61098e-05
2.61101e-05
2.61124e-05
2.61112e-05
2.61107e-05
2.61096e-05
2.61056e-05
2.61068e-05
2.6102e-05
2.61049e-05
2.61047e-05
2.6111e-05
2.61186e-05
2.61246e-05
2.61374e-05
2.61436e-05
2.61667e-05
2.61874e-05
2.62315e-05
2.62685e-05
2.63382e-05
2.64091e-05
2.65449e-05
2.66962e-05
2.69352e-05
2.72532e-05
2.76044e-05
2.80185e-05
2.85309e-05
2.92295e-05
3.00392e-05
3.05159e-05
3.06173e-05
3.13692e-05
3.20529e-05
3.21067e-05
3.29098e-05
3.58223e-05
3.86887e-05
3.98022e-05
3.89075e-05
2.61016e-05
2.61008e-05
2.6103e-05
2.61027e-05
2.61052e-05
2.61062e-05
2.61079e-05
2.61098e-05
2.611e-05
2.61123e-05
2.61111e-05
2.61106e-05
2.61095e-05
2.61054e-05
2.61067e-05
2.61018e-05
2.61046e-05
2.61044e-05
2.61106e-05
2.61181e-05
2.61239e-05
2.61367e-05
2.61429e-05
2.61662e-05
2.61875e-05
2.62312e-05
2.62676e-05
2.63365e-05
2.64075e-05
2.65426e-05
2.66943e-05
2.69321e-05
2.72497e-05
2.76021e-05
2.80161e-05
2.85258e-05
2.9219e-05
3.00274e-05
3.05096e-05
3.0605e-05
3.13345e-05
3.20131e-05
3.20702e-05
3.28681e-05
3.5744e-05
3.86009e-05
3.97398e-05
3.88697e-05
2.61016e-05
2.61008e-05
2.6103e-05
2.61027e-05
2.61052e-05
2.61062e-05
2.61079e-05
2.61098e-05
2.611e-05
2.61123e-05
2.61111e-05
2.61106e-05
2.61094e-05
2.61053e-05
2.61066e-05
2.61016e-05
2.61044e-05
2.61042e-05
2.61102e-05
2.61177e-05
2.61233e-05
2.61361e-05
2.61423e-05
2.61659e-05
2.61875e-05
2.62304e-05
2.62661e-05
2.63342e-05
2.64052e-05
2.65395e-05
2.66916e-05
2.69281e-05
2.72455e-05
2.7599e-05
2.80125e-05
2.85189e-05
2.92069e-05
3.0014e-05
3.05026e-05
3.05924e-05
3.12965e-05
3.19697e-05
3.20319e-05
3.28181e-05
3.5649e-05
3.84931e-05
3.96632e-05
3.88301e-05
2.61016e-05
2.61008e-05
2.6103e-05
2.61027e-05
2.61052e-05
2.61062e-05
2.61079e-05
2.61098e-05
2.611e-05
2.61123e-05
2.6111e-05
2.61105e-05
2.61093e-05
2.61052e-05
2.61064e-05
2.61014e-05
2.61042e-05
2.61039e-05
2.61099e-05
2.61173e-05
2.61229e-05
2.61357e-05
2.6142e-05
2.61658e-05
2.61873e-05
2.62293e-05
2.62642e-05
2.63314e-05
2.64024e-05
2.65357e-05
2.66881e-05
2.69234e-05
2.72404e-05
2.75949e-05
2.80076e-05
2.85105e-05
2.91933e-05
2.99992e-05
3.04949e-05
3.05804e-05
3.12562e-05
3.19238e-05
3.19931e-05
3.27601e-05
3.55373e-05
3.83656e-05
3.9573e-05
3.87901e-05
2.61016e-05
2.61008e-05
2.6103e-05
2.61027e-05
2.61052e-05
2.61062e-05
2.61079e-05
2.61098e-05
2.611e-05
2.61123e-05
2.6111e-05
2.61105e-05
2.61092e-05
2.61051e-05
2.61063e-05
2.61013e-05
2.6104e-05
2.61037e-05
2.61096e-05
2.61171e-05
2.61225e-05
2.61354e-05
2.61418e-05
2.61659e-05
2.61868e-05
2.62278e-05
2.62618e-05
2.63281e-05
2.63989e-05
2.65312e-05
2.66839e-05
2.69181e-05
2.72345e-05
2.75899e-05
2.80015e-05
2.85008e-05
2.91786e-05
2.99824e-05
3.04854e-05
3.05677e-05
3.12124e-05
3.18741e-05
3.1953e-05
3.26926e-05
3.54078e-05
3.82179e-05
3.94694e-05
3.87495e-05
2.61016e-05
2.61008e-05
2.61029e-05
2.61027e-05
2.61052e-05
2.61061e-05
2.61078e-05
2.61098e-05
2.611e-05
2.61122e-05
2.61109e-05
2.61104e-05
2.61091e-05
2.6105e-05
2.61062e-05
2.61012e-05
2.61039e-05
2.61036e-05
2.61094e-05
2.61169e-05
2.61223e-05
2.61352e-05
2.61418e-05
2.61658e-05
2.6186e-05
2.62259e-05
2.62591e-05
2.63242e-05
2.63948e-05
2.6526e-05
2.66788e-05
2.69122e-05
2.72276e-05
2.75836e-05
2.79941e-05
2.84899e-05
2.91624e-05
2.99631e-05
3.04735e-05
3.05543e-05
3.11645e-05
3.18199e-05
3.19106e-05
3.26142e-05
3.5259e-05
3.80487e-05
3.93511e-05
3.87091e-05
2.61016e-05
2.61008e-05
2.61029e-05
2.61027e-05
2.61052e-05
2.61061e-05
2.61078e-05
2.61098e-05
2.61099e-05
2.61122e-05
2.61109e-05
2.61103e-05
2.61091e-05
2.61049e-05
2.61061e-05
2.6101e-05
2.61037e-05
2.61035e-05
2.61093e-05
2.61168e-05
2.61221e-05
2.61351e-05
2.61418e-05
2.61654e-05
2.6185e-05
2.62237e-05
2.62559e-05
2.63199e-05
2.63902e-05
2.65201e-05
2.6673e-05
2.69057e-05
2.72199e-05
2.7576e-05
2.79852e-05
2.84774e-05
2.91442e-05
2.99405e-05
3.04586e-05
3.05409e-05
3.1114e-05
3.17627e-05
3.18681e-05
3.25271e-05
3.50936e-05
3.78609e-05
3.92212e-05
3.86718e-05
2.61016e-05
2.61008e-05
2.61029e-05
2.61026e-05
2.61052e-05
2.61061e-05
2.61078e-05
2.61098e-05
2.61099e-05
2.61122e-05
2.61108e-05
2.61103e-05
2.6109e-05
2.61048e-05
2.6106e-05
2.61009e-05
2.61036e-05
2.61034e-05
2.61092e-05
2.61168e-05
2.6122e-05
2.61352e-05
2.61417e-05
2.61649e-05
2.61837e-05
2.62213e-05
2.62524e-05
2.63152e-05
2.63851e-05
2.65135e-05
2.66664e-05
2.68983e-05
2.72114e-05
2.75669e-05
2.79744e-05
2.8463e-05
2.91232e-05
2.99133e-05
3.04398e-05
3.05271e-05
3.10602e-05
3.17016e-05
3.18245e-05
3.24312e-05
3.49114e-05
3.76535e-05
3.90775e-05
3.86353e-05
2.61016e-05
2.61008e-05
2.61029e-05
2.61026e-05
2.61052e-05
2.61061e-05
2.61078e-05
2.61098e-05
2.61099e-05
2.61122e-05
2.61108e-05
2.61102e-05
2.61089e-05
2.61048e-05
2.61059e-05
2.61008e-05
2.61036e-05
2.61033e-05
2.61092e-05
2.61168e-05
2.61221e-05
2.61352e-05
2.61415e-05
2.61643e-05
2.61822e-05
2.62185e-05
2.62486e-05
2.63101e-05
2.63795e-05
2.65064e-05
2.6659e-05
2.68901e-05
2.7202e-05
2.7556e-05
2.79617e-05
2.84464e-05
2.9099e-05
2.98813e-05
3.04166e-05
3.05133e-05
3.10032e-05
3.16358e-05
3.17786e-05
3.2326e-05
3.47118e-05
3.74246e-05
3.89166e-05
3.85967e-05
2.61016e-05
2.61008e-05
2.61029e-05
2.61026e-05
2.61052e-05
2.61061e-05
2.61078e-05
2.61098e-05
2.61099e-05
2.61121e-05
2.61108e-05
2.61102e-05
2.61088e-05
2.61047e-05
2.61058e-05
2.61008e-05
2.61035e-05
2.61033e-05
2.61092e-05
2.61169e-05
2.6122e-05
2.61351e-05
2.61411e-05
2.61634e-05
2.61806e-05
2.62155e-05
2.62445e-05
2.63046e-05
2.63735e-05
2.64987e-05
2.66509e-05
2.6881e-05
2.71913e-05
2.75434e-05
2.79469e-05
2.84276e-05
2.90715e-05
2.98443e-05
3.03884e-05
3.04998e-05
3.09431e-05
3.15643e-05
3.1729e-05
3.22118e-05
3.44944e-05
3.71722e-05
3.8734e-05
3.85509e-05
2.61016e-05
2.61008e-05
2.61029e-05
2.61026e-05
2.61052e-05
2.61061e-05
2.61078e-05
2.61098e-05
2.61098e-05
2.61121e-05
2.61107e-05
2.61101e-05
2.61088e-05
2.61046e-05
2.61058e-05
2.61007e-05
2.61035e-05
2.61034e-05
2.61092e-05
2.61169e-05
2.61219e-05
2.61349e-05
2.61406e-05
2.61624e-05
2.61787e-05
2.62123e-05
2.62402e-05
2.62988e-05
2.6367e-05
2.64904e-05
2.66422e-05
2.6871e-05
2.71792e-05
2.75293e-05
2.79298e-05
2.84064e-05
2.90401e-05
2.98015e-05
3.03544e-05
3.04868e-05
3.08798e-05
3.14865e-05
3.16745e-05
3.20896e-05
3.42603e-05
3.68956e-05
3.85269e-05
3.84939e-05
2.61016e-05
2.61008e-05
2.61029e-05
2.61026e-05
2.61052e-05
2.61061e-05
2.61078e-05
2.61098e-05
2.61098e-05
2.61121e-05
2.61107e-05
2.61101e-05
2.61087e-05
2.61046e-05
2.61057e-05
2.61006e-05
2.61035e-05
2.61034e-05
2.61092e-05
2.61169e-05
2.61217e-05
2.61346e-05
2.614e-05
2.61612e-05
2.61767e-05
2.6209e-05
2.62357e-05
2.62928e-05
2.63602e-05
2.64818e-05
2.66327e-05
2.686e-05
2.71657e-05
2.75136e-05
2.79107e-05
2.83826e-05
2.90048e-05
2.97528e-05
3.0314e-05
3.04748e-05
3.08138e-05
3.14023e-05
3.16144e-05
3.19612e-05
3.40115e-05
3.65956e-05
3.82932e-05
3.84227e-05
2.61016e-05
2.61008e-05
2.61029e-05
2.61026e-05
2.61052e-05
2.61061e-05
2.61078e-05
2.61098e-05
2.61098e-05
2.61121e-05
2.61106e-05
2.61101e-05
2.61086e-05
2.61045e-05
2.61056e-05
2.61006e-05
2.61035e-05
2.61034e-05
2.61091e-05
2.61168e-05
2.61215e-05
2.61342e-05
2.61393e-05
2.61599e-05
2.61745e-05
2.62055e-05
2.6231e-05
2.62867e-05
2.63531e-05
2.64727e-05
2.66227e-05
2.68481e-05
2.71506e-05
2.7496e-05
2.78899e-05
2.83564e-05
2.8966e-05
2.96989e-05
3.02678e-05
3.04615e-05
3.07481e-05
3.13141e-05
3.15506e-05
3.18312e-05
3.37527e-05
3.62755e-05
3.80337e-05
3.83359e-05
2.61016e-05
2.61008e-05
2.61029e-05
2.61026e-05
2.61052e-05
2.61061e-05
2.61078e-05
2.61097e-05
2.61098e-05
2.61121e-05
2.61106e-05
2.611e-05
2.61086e-05
2.61044e-05
2.61056e-05
2.61006e-05
2.61034e-05
2.61034e-05
2.6109e-05
2.61167e-05
2.61211e-05
2.61337e-05
2.61385e-05
2.61585e-05
2.61722e-05
2.62018e-05
2.62263e-05
2.62803e-05
2.63457e-05
2.64633e-05
2.6612e-05
2.68351e-05
2.71341e-05
2.74766e-05
2.78677e-05
2.83279e-05
2.8924e-05
2.96407e-05
3.02169e-05
3.04459e-05
3.06863e-05
3.12258e-05
3.14864e-05
3.17058e-05
3.34912e-05
3.59418e-05
3.77523e-05
3.82346e-05
2.61016e-05
2.61008e-05
2.61029e-05
2.61026e-05
2.61052e-05
2.61061e-05
2.61078e-05
2.61097e-05
2.61097e-05
2.6112e-05
2.61105e-05
2.611e-05
2.61085e-05
2.61044e-05
2.61055e-05
2.61005e-05
2.61034e-05
2.61034e-05
2.61089e-05
2.61166e-05
2.61208e-05
2.61331e-05
2.61375e-05
2.6157e-05
2.61698e-05
2.61981e-05
2.62214e-05
2.62739e-05
2.63381e-05
2.64536e-05
2.66007e-05
2.68211e-05
2.71161e-05
2.74556e-05
2.78441e-05
2.8298e-05
2.88795e-05
2.95789e-05
3.01616e-05
3.04278e-05
3.06303e-05
3.11388e-05
3.1422e-05
3.15883e-05
3.32307e-05
3.55972e-05
3.74487e-05
3.81153e-05
2.61016e-05
2.61008e-05
2.61029e-05
2.61026e-05
2.61052e-05
2.61061e-05
2.61078e-05
2.61097e-05
2.61097e-05
2.6112e-05
2.61105e-05
2.61099e-05
2.61084e-05
2.61043e-05
2.61055e-05
2.61005e-05
2.61034e-05
2.61034e-05
2.61087e-05
2.61164e-05
2.61203e-05
2.61325e-05
2.61365e-05
2.61553e-05
2.61673e-05
2.61943e-05
2.62165e-05
2.62674e-05
2.63303e-05
2.64436e-05
2.65889e-05
2.68061e-05
2.70967e-05
2.7433e-05
2.78189e-05
2.8267e-05
2.88331e-05
2.95145e-05
3.01028e-05
3.0407e-05
3.05826e-05
3.10552e-05
3.13582e-05
3.14819e-05
3.29754e-05
3.52448e-05
3.71229e-05
3.79737e-05
2.61016e-05
2.61008e-05
2.61029e-05
2.61026e-05
2.61052e-05
2.61061e-05
2.61078e-05
2.61097e-05
2.61097e-05
2.6112e-05
2.61104e-05
2.61099e-05
2.61084e-05
2.61043e-05
2.61054e-05
2.61005e-05
2.61033e-05
2.61033e-05
2.61086e-05
2.61162e-05
2.61199e-05
2.61318e-05
2.61355e-05
2.61536e-05
2.61648e-05
2.61905e-05
2.62116e-05
2.62609e-05
2.63224e-05
2.64333e-05
2.65764e-05
2.67901e-05
2.7076e-05
2.7409e-05
2.77922e-05
2.8235e-05
2.87845e-05
2.94473e-05
3.00395e-05
3.03821e-05
3.05443e-05
3.09758e-05
3.12947e-05
3.13888e-05
3.27288e-05
3.48879e-05
3.67751e-05
3.78044e-05
2.61016e-05
2.61007e-05
2.61029e-05
2.61026e-05
2.61052e-05
2.61061e-05
2.61078e-05
2.61097e-05
2.61097e-05
2.6112e-05
2.61104e-05
2.61098e-05
2.61083e-05
2.61042e-05
2.61054e-05
2.61005e-05
2.61033e-05
2.61033e-05
2.61084e-05
2.61159e-05
2.61194e-05
2.6131e-05
2.61343e-05
2.61518e-05
2.61622e-05
2.61867e-05
2.62068e-05
2.62545e-05
2.63145e-05
2.64229e-05
2.65635e-05
2.67731e-05
2.7054e-05
2.73836e-05
2.77636e-05
2.82009e-05
2.87339e-05
2.93765e-05
2.99705e-05
3.035e-05
3.05146e-05
3.08995e-05
3.12283e-05
3.13074e-05
3.24905e-05
3.45258e-05
3.64018e-05
3.75975e-05
2.61016e-05
2.61007e-05
2.61029e-05
2.61025e-05
2.61052e-05
2.61061e-05
2.61077e-05
2.61097e-05
2.61096e-05
2.61119e-05
2.61103e-05
2.61098e-05
2.61082e-05
2.61042e-05
2.61053e-05
2.61005e-05
2.61032e-05
2.61032e-05
2.61082e-05
2.61156e-05
2.61188e-05
2.61303e-05
2.61332e-05
2.615e-05
2.61596e-05
2.6183e-05
2.62019e-05
2.6248e-05
2.63064e-05
2.64122e-05
2.65499e-05
2.67552e-05
2.70308e-05
2.73564e-05
2.77329e-05
2.81642e-05
2.86813e-05
2.93021e-05
2.98952e-05
3.03093e-05
3.04949e-05
3.0828e-05
3.11597e-05
3.12392e-05
3.22645e-05
3.41632e-05
3.60059e-05
3.73493e-05
2.61016e-05
2.61007e-05
2.61029e-05
2.61025e-05
2.61052e-05
2.61061e-05
2.61077e-05
2.61097e-05
2.61096e-05
2.61119e-05
2.61103e-05
2.61097e-05
2.61082e-05
2.61041e-05
2.61052e-05
2.61005e-05
2.61032e-05
2.61032e-05
2.61081e-05
2.61154e-05
2.61183e-05
2.61295e-05
2.6132e-05
2.61482e-05
2.6157e-05
2.61792e-05
2.61972e-05
2.62417e-05
2.62983e-05
2.64013e-05
2.65359e-05
2.67365e-05
2.70062e-05
2.73276e-05
2.76998e-05
2.81244e-05
2.86263e-05
2.92235e-05
2.98126e-05
3.02577e-05
3.04846e-05
3.07613e-05
3.10873e-05
3.11822e-05
3.2051e-05
3.38019e-05
3.55878e-05
3.70552e-05
2.61016e-05
2.61007e-05
2.61029e-05
2.61025e-05
2.61052e-05
2.6106e-05
2.61077e-05
2.61097e-05
2.61096e-05
2.61119e-05
2.61102e-05
2.61097e-05
2.61081e-05
2.6104e-05
2.61052e-05
2.61005e-05
2.61032e-05
2.61032e-05
2.61079e-05
2.61151e-05
2.61178e-05
2.61287e-05
2.61308e-05
2.61464e-05
2.61545e-05
2.61756e-05
2.61925e-05
2.62354e-05
2.62902e-05
2.63903e-05
2.65213e-05
2.67169e-05
2.69805e-05
2.72968e-05
2.7664e-05
2.80813e-05
2.85678e-05
2.91415e-05
2.97226e-05
3.0194e-05
3.04708e-05
3.07015e-05
3.10126e-05
3.11385e-05
3.18524e-05
3.34466e-05
3.51524e-05
3.67159e-05
2.61017e-05
2.61007e-05
2.61029e-05
2.61025e-05
2.61052e-05
2.6106e-05
2.61077e-05
2.61097e-05
2.61096e-05
2.61119e-05
2.61102e-05
2.61096e-05
2.6108e-05
2.6104e-05
2.61051e-05
2.61005e-05
2.61031e-05
2.61032e-05
2.61078e-05
2.61148e-05
2.61173e-05
2.61279e-05
2.61297e-05
2.61446e-05
2.61519e-05
2.6172e-05
2.61879e-05
2.62293e-05
2.62821e-05
2.63791e-05
2.65063e-05
2.66965e-05
2.69535e-05
2.72642e-05
2.76255e-05
2.80346e-05
2.85056e-05
2.90562e-05
2.96254e-05
3.01174e-05
3.04419e-05
3.06507e-05
3.09371e-05
3.10849e-05
3.16702e-05
3.31016e-05
3.47051e-05
3.63331e-05
2.61017e-05
2.61007e-05
2.61029e-05
2.61025e-05
2.61052e-05
2.6106e-05
2.61077e-05
2.61097e-05
2.61095e-05
2.61118e-05
2.61101e-05
2.61096e-05
2.61079e-05
2.61039e-05
2.6105e-05
2.61005e-05
2.61031e-05
2.61032e-05
2.61076e-05
2.61146e-05