/*--------------------------------*- C++ -*----------------------------------*\
  =========                 |
  \\      /  F ield         | OpenFOAM: The Open Source CFD Toolbox
   \\    /   O peration     | Website:  https://openfoam.org
    \\  /    A nd           | Version:  10
     \\/     M anipulation  |
\*---------------------------------------------------------------------------*/
FoamFile
{
    format      ascii;
    class       volScalarField;
    location    "10";
    object      p;
}
// * * * * * * * * * * * * * * * * * * * * * * * * * * * * * * * * * * * * * //

dimensions      [0 2 -2 0 0 0 0];

internalField   nonuniform List<scalar> 
38016
(
2.07017
-1.57378
-1.29552
-2.12748
-1.57972
-1.94619
-1.4277
-0.746491
-0.336854
1.08912
2.66312
4.52668
7.20552
10.6295
13.506
17.5121
20.3906
22.3831
23.22
21.0186
16.6055
8.19403
-4.75238
-23.7381
-51.8928
-90.017
-130.818
-167.757
-198.892
-224.037
-240.466
-255.69
-259.183
-252.625
-250.657
-234.934
-257.361
-261.062
-253.579
-243.306
-230.219
-237.043
-231.666
-224.128
-211.131
-202.493
-187.11
-168.891
2.22151
-1.17002
-1.02536
-1.57114
-1.34931
-1.51237
-1.2043
-0.538945
-0.161035
1.26341
2.53356
4.73003
7.11693
10.6046
13.7158
17.5538
20.5057
22.6537
23.1552
21.392
16.7434
8.60194
-4.53811
-23.8984
-52.3257
-91.4626
-132.408
-169.526
-201.282
-226.131
-242.006
-254.713
-260.272
-261.431
-262.97
-255.67
-259.066
-262.729
-258.511
-255.665
-244.202
-244.365
-236.05
-231.152
-222.464
-212.472
-196.096
-179.331
2.28154
-1.05039
-0.928439
-1.40276
-1.27802
-1.37025
-1.11939
-0.485222
-0.0827081
1.30796
2.52025
4.77751
7.14947
10.5905
13.8724
17.617
20.6778
22.8662
23.3259
21.6956
16.9993
8.8804
-4.39729
-24.0854
-52.9565
-92.9285
-134.499
-172.269
-204.521
-229.408
-245.314
-257.447
-263.538
-267.324
-270.219
-266.398
-264.433
-266.921
-264.086
-262.901
-254.792
-250.66
-244.11
-238.761
-231.349
-221.632
-205.949
-190.635
2.31495
-1.02568
-0.899424
-1.37226
-1.25093
-1.34121
-1.09983
-0.460927
-0.0722811
1.3282
2.52482
4.79462
7.1696
10.6121
13.9376
17.7031
20.8308
23.0886
23.6051
22.047
17.3652
9.20926
-4.20927
-24.2109
-53.587
-94.3173
-136.599
-175.05
-207.822
-233.097
-249.365
-261.817
-268.023
-272.164
-275.005
-272.118
-270.522
-272.744
-270.339
-268.763
-262.404
-258.125
-252.629
-246.734
-239.353
-230.428
-216.271
-202.532
2.35013
-1.00018
-0.870758
-1.33646
-1.22563
-1.30934
-1.07786
-0.439468
-0.0562993
1.34302
2.53403
4.80887
7.19059
10.6351
14.0013
17.7921
20.9815
23.3118
23.8826
22.4
17.7376
9.55023
-3.99868
-24.3003
-54.1623
-95.6284
-138.611
-177.738
-211.036
-236.679
-253.296
-266.025
-272.397
-276.966
-279.826
-278.049
-276.586
-278.496
-276.517
-274.793
-269.963
-265.651
-260.681
-254.717
-247.556
-239.439
-226.983
-215.06
2.38502
-0.974651
-0.842077
-1.3008
-1.20018
-1.27754
-1.05585
-0.417911
-0.040306
1.35797
2.54333
4.82328
7.21175
10.6588
14.0656
17.8824
21.1341
23.5379
24.1649
22.7598
18.1202
9.90595
-3.76616
-24.357
-54.6885
-96.8704
-140.538
-180.334
-214.16
-240.182
-257.171
-270.188
-276.756
-281.723
-284.58
-283.849
-282.601
-284.323
-282.72
-280.945
-277.225
-273.184
-268.541
-262.787
-256.022
-248.761
-238.033
-228.027
2.4197
-0.949161
-0.813407
-1.26523
-1.17465
-1.24586
-1.03371
-0.3965
-0.0240927
1.37272
2.55291
4.83765
7.23309
10.6829
14.1301
17.974
21.2881
23.7667
24.4515
23.1256
18.5125
10.2758
-3.51212
-24.3809
-55.1656
-98.0419
-142.379
-182.836
-217.192
-243.602
-260.982
-274.295
-281.092
-286.429
-289.295
-289.515
-288.547
-290.161
-288.924
-287.22
-284.214
-280.588
-276.289
-270.96
-264.769
-258.364
-249.232
-241.071
2.45417
-0.92371
-0.784749
-1.22972
-1.14906
-1.21428
-1.01142
-0.375224
-0.00766817
1.38728
2.56277
4.85196
7.25455
10.7074
14.1948
18.0666
21.4432
23.9976
24.7418
23.4968
18.9136
10.6587
-3.23742
-24.3728
-55.5937
-99.1418
-144.131
-185.239
-220.128
-246.934
-264.725
-278.338
-285.398
-291.08
-293.985
-295.037
-294.407
-295.963
-295.064
-293.561
-291.003
-287.786
-283.879
-279.121
-273.649
-268.106
-260.406
-253.946
2.48844
-0.898296
-0.756101
-1.1943
-1.12339
-1.1828
-0.989005
-0.354084
0.00896339
1.40165
2.57287
4.86618
7.27608
10.7324
14.2595
18.16
21.5992
24.2301
25.0352
23.8724
19.3225
11.0537
-2.94337
-24.3338
-55.9735
-100.17
-145.792
-187.541
-222.965
-250.175
-268.396
-282.314
-289.673
-295.673
-298.662
-300.413
-300.166
-301.694
-301.094
-299.869
-297.653
-294.801
-291.296
-287.125
-282.384
-277.66
-271.173
-266.068
2.5225
-0.872919
-0.727465
-1.15895
-1.09765
-1.15143
-0.966454
-0.333081
0.0257963
1.41582
2.58319
4.88028
7.29761
10.7575
14.324
18.2539
21.7555
24.4636
25.3308
24.2513
19.7378
11.4589
-2.63175
-24.2655
-56.3067
-101.125
-147.362
-189.74
-225.699
-253.322
-271.991
-286.222
-293.912
-300.206
-303.335
-305.649
-305.819
-307.333
-306.995
-306.046
-304.141
-301.611
-298.485
-294.853
-290.785
-286.817
-281.374
-277.338
2.55636
-0.847578
-0.698842
-1.12368
-1.07184
-1.12016
-0.943772
-0.312214
0.0428235
1.42977
2.59372
4.89422
7.31905
10.7827
14.3881
18.3478
21.9116
24.6973
25.6277
24.6322
20.1578
11.8724
-2.30486
-24.1704
-56.5954
-102.01
-148.84
-191.834
-228.329
-256.374
-275.51
-290.057
-298.115
-304.681
-308.008
-310.759
-311.361
-312.861
-312.755
-312.033
-310.397
-308.134
-305.335
-302.161
-298.672
-295.368
-290.831
-287.683
2.59002
-0.822273
-0.670234
-1.08848
-1.04596
-1.089
-0.920962
-0.291486
0.0600367
1.4435
2.60441
4.90796
7.3403
10.8079
14.4514
18.4415
22.0669
24.9303
25.9246
25.0133
20.5805
12.2916
-1.96558
-24.0515
-56.8427
-102.826
-150.227
-193.824
-230.855
-259.33
-278.951
-293.822
-302.277
-309.098
-312.68
-315.76
-316.788
-318.27
-318.354
-317.794
-316.368
-314.32
-311.8
-308.998
-305.964
-303.156
-299.283
-296.707
2.62348
-0.797003
-0.641641
-1.05336
-1.02001
-1.05794
-0.898025
-0.2709
0.0774259
1.457
2.61524
4.92142
7.36123
10.8328
14.5137
18.5342
22.2207
25.1614
26.2201
25.3927
21.0035
12.7135
-1.61745
-23.9126
-57.0524
-103.575
-151.523
-195.709
-233.276
-262.19
-282.315
-297.515
-306.396
-313.46
-317.344
-320.668
-322.094
-323.558
-323.777
-323.313
-322.038
-320.174
-317.918
-315.462
-312.859
-310.516
-307.24
-305.155
2.65674
-0.771768
-0.613065
-1.01832
-0.993992
-1.02698
-0.874965
-0.250457
0.0949798
1.47024
2.62615
4.93456
7.38172
10.8573
14.5745
18.6256
22.3721
25.3894
26.5125
25.7681
21.4237
13.1345
-1.2647
-23.7584
-57.2296
-104.261
-152.732
-197.491
-235.593
-264.955
-285.603
-301.14
-310.471
-317.771
-321.988
-325.498
-327.271
-328.722
-329.024
-328.603
-327.448
-325.757
-323.738
-321.565
-319.306
-317.337
-314.554
-312.877
2.68979
-0.746569
-0.584508
-0.98335
-0.967912
-0.996128
-0.851784
-0.230163
0.112685
1.48321
2.6371
4.94728
7.4016
10.881
14.6335
18.7149
22.5201
25.6128
26.7999
26.1368
21.8379
13.5504
-0.912293
-23.5945
-57.3802
-104.889
-153.857
-199.173
-237.81
-267.629
-288.817
-304.7
-314.499
-322.036
-326.601
-330.258
-332.315
-333.756
-334.111
-333.713
-332.684
-331.193
-329.427
-327.518
-325.537
-323.826
-321.37
-319.911
2.72264
-0.721404
-0.555972
-0.948463
-0.941768
-0.96538
-0.828488
-0.210022
0.130527
1.49588
2.64804
4.9595
7.4207
10.9037
14.6901
18.8012
22.6636
25.8299
27.08
26.4957
22.2422
13.9563
-0.56603
-23.4274
-57.5112
-105.464
-154.903
-200.759
-239.928
-270.215
-291.96
-308.2
-318.48
-326.259
-331.174
-334.952
-337.231
-338.66
-339.069
-338.711
-337.823
-336.546
-335.054
-333.453
-331.806
-330.406
-328.312
-327.121
2.75529
-0.696274
-0.52746
-0.913656
-0.915563
-0.934737
-0.805081
-0.19004
0.148488
1.50822
2.65889
4.97111
7.43879
10.9251
14.7437
18.8838
22.8012
26.0387
27.3504
26.8413
22.6321
14.3466
-0.232569
-23.2646
-57.6308
-105.994
-155.875
-202.252
-241.953
-272.719
-295.037
-311.645
-322.418
-330.445
-335.703
-339.581
-342.032
-343.451
-343.931
-343.664
-342.947
-341.873
-340.589
-339.206
-337.795
-336.608
-334.776
-333.772
2.78773
-0.671178
-0.498972
-0.878929
-0.889299
-0.904201
-0.781567
-0.170223
0.16655
1.52021
2.6696
4.98201
7.45566
10.9447
14.7937
18.9616
22.9315
26.2372
27.608
27.1696
23.0024
14.7149
0.0805265
-23.1148
-57.7486
-106.487
-156.781
-203.661
-243.892
-275.146
-298.054
-315.043
-326.316
-334.597
-340.182
-344.144
-346.733
-348.16
-348.73
-348.608
-348.11
-347.281
-346.23
-345.056
-343.834
-342.786
-341.115
-340.191
2.81996
-0.646117
-0.470512
-0.844285
-0.862978
-0.873774
-0.757951
-0.15058
0.18469
1.53181
2.68008
4.99205
7.47104
10.9622
14.8393
19.0335
23.0528
26.4229
27.8497
27.4762
23.3477
15.0542
0.36475
-22.9877
-57.8751
-106.953
-157.63
-204.993
-245.75
-277.504
-301.017
-318.402
-330.177
-338.717
-344.609
-348.647
-351.355
-352.819
-353.497
-353.541
-353.245
-352.632
-351.805
-350.862
-349.863
-348.997
-347.53
-346.745
2.85198
-0.62109
-0.442083
-0.809724
-0.836603
-0.843456
-0.734242
-0.131119
0.202885
1.54298
2.69025
5.0011
7.48464
10.977
14.8798
19.0982
23.1633
26.593
28.0718
27.7559
23.6615
15.3565
0.610637
-22.8941
-58.0222
-107.402
-158.431
-206.256
-247.536
-279.8
-303.931
-321.728
-334.007
-342.808
-348.985
-353.104
-355.92
-357.457
-358.264
-358.485
-358.345
-357.847
-357.11
-356.251
-355.338
-354.533
-353.162
-352.429
2.88379
-0.596097
-0.413685
-0.775249
-0.810176
-0.81325
-0.710444
-0.111848
0.221107
1.55367
2.70001
5.00898
7.49614
10.9887
14.9141
19.1544
23.261
26.7444
28.2703
28.0034
23.9368
15.6131
0.807756
-22.846
-58.2031
-107.848
-159.196
-207.461
-249.259
-282.044
-306.804
-325.03
-337.808
-346.873
-353.318
-357.539
-360.458
-362.09
-363.023
-363.411
-363.416
-363.043
-362.418
-361.667
-360.846
-360.1
-358.81
-358.111
2.91539
-0.571138
-0.385323
-0.74086
-0.7837
-0.783158
-0.686567
-0.0927797
0.239329
1.56384
2.70925
5.01553
7.50519
10.9966
14.9414
19.2004
23.3434
26.874
28.4407
28.2125
24.166
15.8143
0.944727
-22.8564
-58.4318
-108.303
-159.937
-208.618
-250.928
-284.243
-309.643
-328.316
-341.587
-350.926
-357.629
-361.982
-365.001
-366.74
-367.764
-368.23
-368.274
-367.946
-367.398
-366.743
-366.023
-365.354
-364.17
-363.545
2.94676
-0.546213
-0.357
-0.706561
-0.757179
-0.753181
-0.662617
-0.0739236
0.257517
1.57344
2.71786
5.02055
7.5114
11.0001
14.9605
19.2345
23.4082
26.9778
28.5781
28.3765
24.3406
15.9499
1.00926
-22.9394
-58.7235
-108.782
-160.668
-209.74
-252.553
-286.408
-312.455
-331.594
-345.35
-354.983
-361.944
-366.465
-369.586
-371.444
-372.547
-373.047
-373.069
-372.716
-372.162
-371.518
-370.814
-370.149
-369.005
-368.398
2.97792
-0.521322
-0.328718
-0.672352
-0.730616
-0.723323
-0.638605
-0.0552915
0.275638
1.58242
2.72572
5.02383
7.51436
10.9986
14.9703
19.255
23.4525
27.0521
28.6772
28.4883
24.4517
16.0085
0.988234
-23.1098
-59.0942
-109.3
-161.403
-210.838
-254.145
-288.548
-315.25
-334.872
-349.112
-359.067
-366.295
-371.018
-374.245
-376.223
-377.399
-377.942
-377.992
-377.69
-377.208
-376.632
-375.982
-375.346
-374.254
-373.672
3.00885
-0.496464
-0.30048
-0.638236
-0.704014
-0.693586
-0.61454
-0.0368957
0.293655
1.59071
2.73269
5.02514
7.51361
10.9913
14.9693
19.2598
23.4735
27.0924
28.7323
28.5401
24.4897
15.9785
0.867781
-23.3833
-59.5607
-109.874
-162.156
-211.927
-255.715
-290.674
-318.033
-338.159
-352.887
-363.201
-370.713
-375.669
-379.023
-381.126
-382.357
-382.911
-382.972
-382.718
-382.305
-381.798
-381.207
-380.61
-379.581
-379.043
3.03954
-0.47164
-0.27229
-0.604215
-0.677378
-0.663971
-0.590433
-0.0187486
0.311526
1.59825
2.73864
5.02425
7.50867
10.9773
14.9563
19.2468
23.468
27.0941
28.7372
28.5237
24.4444
15.8474
0.633442
-23.7761
-60.1397
-110.52
-162.944
-213.019
-257.274
-292.795
-320.812
-341.465
-356.695
-367.409
-375.221
-380.438
-383.953
-386.215
-387.544
-388.163
-388.286
-388.109
-387.767
-387.312
-386.755
-386.174
-385.184
-384.666
3.07001
-0.44685
-0.244152
-0.570292
-0.650711
-0.634482
-0.566295
-0.000862515
0.329212
1.60498
2.74341
5.0209
7.49903
10.9558
14.9297
19.2136
23.4325
27.0523
28.6854
28.4304
24.305
15.6022
0.27033
-24.3049
-60.8485
-111.255
-163.78
-214.129
-258.832
-294.92
-323.595
-344.801
-360.555
-371.707
-379.833
-385.327
-389.024
-391.461
-392.93
-393.69
-393.974
-393.961
-393.758
-393.403
-392.913
-392.373
-391.435
-390.946
3.10023
-0.422092
-0.21607
-0.53647
-0.624019
-0.60512
-0.542137
0.0167501
0.346667
1.61085
2.74684
5.01482
7.48416
10.926
14.888
19.1578
23.3635
26.9618
28.57
28.2512
24.0606
15.2297
-0.236664
-24.9862
-61.7038
-112.096
-164.681
-215.268
-260.4
-297.056
-326.388
-348.176
-364.481
-376.103
-384.549
-390.321
-394.209
-396.815
-398.421
-399.315
-399.742
-399.865
-399.767
-399.484
-399.044
-398.535
-397.644
-397.181
3.1302
-0.397368
-0.188046
-0.50275
-0.597305
-0.575888
-0.517974
0.0340774
0.363845
1.61577
2.74878
5.00574
7.46348
10.8867
14.8295
19.0768
23.2571
26.8171
28.3839
27.9767
23.6997
14.7165
-0.902656
-25.8363
-62.7219
-113.057
-165.66
-216.449
-261.987
-299.21
-329.197
-351.599
-368.484
-380.592
-389.354
-395.393
-399.478
-402.259
-404.012
-405.045
-405.603
-405.831
-405.802
-405.556
-405.136
-404.632
-403.763
-403.308
3.15992
-0.372676
-0.160087
-0.469135
-0.570575
-0.546787
-0.493817
0.0511083
0.380698
1.61968
2.74906
4.99337
7.43642
10.8371
14.7526
18.968
23.1095
26.6126
28.1196
27.5974
23.2109
14.0492
-1.74249
-26.8711
-63.9179
-114.155
-166.731
-217.684
-263.599
-301.386
-332.028
-355.08
-372.565
-385.164
-394.226
-400.512
-404.776
-407.699
-409.571
-410.721
-411.383
-411.688
-411.699
-411.467
-411.047
-410.534
-409.669
-409.209
3.18937
-0.348017
-0.132195
-0.435629
-0.543833
-0.51782
-0.46968
0.0678328
0.397179
1.62253
2.7475
4.97742
7.40237
10.7762
14.6554
18.8286
22.9166
26.3424
27.7695
27.1035
22.5829
13.2146
-2.7704
-28.1055
-65.3057
-115.403
-167.906
-218.982
-265.243
-303.587
-334.884
-358.62
-376.72
-389.802
-399.156
-405.668
-410.083
-413.097
-415.029
-416.225
-416.921
-417.234
-417.232
-416.975
-416.529
-415.985
-415.107
-414.628
3.21856
-0.323389
-0.104376
-0.402235
-0.517086
-0.488987
-0.445578
0.0842427
0.413238
1.62424
2.74393
4.9576
7.36074
10.7028
14.5363
18.6557
22.6743
26.0007
27.3262
26.4856
21.8045
12.2004
-3.9997
-29.5529
-66.8975
-116.814
-169.195
-220.351
-266.921
-305.815
-337.77
-362.219
-380.941
-394.498
-404.144
-410.874
-415.427
-418.512
-420.477
-421.685
-422.368
-422.645
-422.59
-422.274
-421.772
-421.176
-420.263
-419.746
3.24747
-0.298792
-0.0766338
-0.368955
-0.490337
-0.460289
-0.421524
0.100331
0.428827
1.62477
2.73819
4.93364
7.31092
10.6159
14.3934
18.4466
22.3784
25.5816
26.7821
25.7345
20.8651
10.9949
-5.44241
-31.225
-68.7029
-118.396
-170.607
-221.797
-268.635
-308.069
-340.683
-365.871
-385.216
-399.246
-409.2
-416.154
-420.844
-423.989
-425.982
-427.2
-427.871
-428.113
-428.008
-427.637
-427.083
-426.435
-425.486
-424.931
3.2761
-0.274226
-0.0489743
-0.335792
-0.463594
-0.431725
-0.397532
0.116095
0.443897
1.62406
2.7301
4.90524
7.25231
10.5146
14.2249
18.1984
22.0248
25.0795
26.1298
24.8413
19.7548
9.5877
-7.10893
-33.1313
-70.7292
-120.157
-172.148
-223.322
-270.384
-310.348
-343.623
-369.564
-389.535
-404.046
-414.344
-421.544
-426.378
-429.583
-431.597
-432.806
-433.445
-433.633
-433.466
-433.033
-432.421
-431.719
-430.73
-430.135
3.30442
-0.249689
-0.0214022
-0.302751
-0.436861
-0.403296
-0.373617
0.131533
0.458403
1.62207
2.71951
4.87216
7.18436
10.3978
14.0293
17.9085
21.6097
24.4889
25.3625
23.798
18.4648
7.96978
-9.00764
-35.2789
-72.9808
-122.102
-173.819
-224.927
-272.166
-312.647
-346.581
-373.281
-393.886
-408.902
-419.59
-427.071
-432.079
-435.374
-437.435
-438.656
-439.271
-439.412
-439.185
-438.692
-438.024
-437.268
-436.236
-435.602
3.33244
-0.225181
0.0060769
-0.269835
-0.410144
-0.375
-0.349791
0.146647
0.4723
1.61877
2.70626
4.83415
7.10652
10.2645
13.8048
17.5743
21.1293
23.8048
24.4739
22.5974
16.9875
6.13406
-11.1446
-37.6718
-75.4586
-124.232
-175.622
-226.608
-273.977
-314.957
-349.544
-377.003
-398.255
-413.811
-424.936
-432.733
-437.943
-441.354
-443.487
-444.741
-445.355
-445.469
-445.201
-444.662
-443.949
-443.147
-442.077
-441.407
3.36015
-0.2007
0.0334575
-0.237046
-0.383449
-0.346835
-0.326069
0.161444
0.48555
1.61413
2.69022
4.791
7.01832
10.114
13.55
17.1934
20.5803
23.0225
23.4584
21.2336
15.3169
4.07555
-13.5232
-40.3108
-78.1601
-126.544
-177.551
-228.359
-275.808
-317.267
-352.497
-380.707
-402.622
-418.76
-430.367
-438.514
-443.949
-447.493
-449.703
-450.987
-451.593
-451.675
-451.364
-450.78
-450.023
-449.178
-448.071
-447.369
3.38752
-0.176245
0.0607338
-0.204389
-0.356781
-0.318797
-0.302463
0.175934
0.498116
1.60814
2.67128
4.74253
6.91933
9.94539
13.2638
16.7639
19.9598
22.1382
22.3113
19.7019
13.4489
1.7917
-16.1438
-43.1933
-81.0793
-129.032
-179.6
-230.17
-277.649
-319.561
-355.416
-384.366
-406.965
-423.722
-435.851
-444.377
-450.066
-453.769
-456.077
-457.404
-458.013
-458.07
-457.723
-457.097
-456.298
-455.412
-454.267
-453.532
3.41454
-0.151813
0.0878998
-0.171867
-0.330146
-0.290882
-0.278984
0.190132
0.509969
1.60081
2.64934
4.68861
6.80921
9.75812
12.945
16.2838
19.2652
21.1489
21.0292
17.9994
11.3813
-0.717375
-19.0037
-46.3129
-84.2059
-131.686
-181.757
-232.028
-279.487
-321.817
-358.275
-387.951
-411.252
-428.663
-441.342
-450.269
-456.226
-460.1
-462.513
-463.891
-464.508
-464.548
-464.171
-463.511
-462.677
-461.753
-460.573
-459.81
3.44121
-0.127404
0.114949
-0.139483
-0.303548
-0.263085
-0.255643
0.204059
0.521084
1.59215
2.62434
4.62915
6.68771
9.55171
12.5929
15.7521
18.4951
20.0526
19.6099
16.1252
9.11448
-3.44861
-22.0966
-49.6593
-87.526
-134.491
-184.006
-233.916
-281.304
-324.009
-361.041
-391.428
-415.447
-433.54
-446.795
-456.145
-462.387
-466.439
-468.956
-470.378
-471
-471.023
-470.617
-469.922
-469.054
-468.093
-466.877
-466.087
3.46751
-0.103014
0.141876
-0.107242
-0.276992
-0.235398
-0.232448
0.21774
0.531447
1.58222
2.59622
4.56413
6.5547
9.32587
12.2071
15.168
17.6483
18.8484
18.053
14.0802
6.6513
-6.39582
-25.4128
-53.2184
-91.0216
-137.428
-186.33
-235.813
-283.076
-326.108
-363.678
-394.76
-419.508
-438.305
-452.159
-461.957
-468.514
-472.769
-475.405
-476.885
-477.521
-477.533
-477.105
-476.383
-475.483
-474.489
-473.237
-472.421
3.49342
-0.0786401
0.168673
-0.0751482
-0.250484
-0.207816
-0.209408
0.231207
0.541049
1.57106
2.56499
4.49358
6.41016
9.08054
11.7876
14.5313
16.7249
17.5369
16.3596
11.868
3.99742
-9.54955
-28.9388
-56.9718
-94.6707
-140.475
-188.704
-237.696
-284.776
-328.077
-366.147
-397.905
-423.389
-442.909
-457.387
-467.662
-474.559
-479.04
-481.815
-483.368
-484.035
-484.053
-483.616
-482.876
-481.952
-480.929
-479.644
-478.806
3.51892
-0.0542799
0.195334
-0.0432044
-0.224028
-0.180327
-0.186529
0.244496
0.549892
1.55876
2.53068
4.41761
6.25422
8.81587
11.3347
13.8425
15.7259
16.12
14.533
9.49427
1.16141
-12.8969
-32.6574
-60.8976
-98.4476
-143.604
-191.101
-239.535
-286.372
-329.876
-368.402
-400.818
-427.046
-447.308
-462.437
-473.232
-480.514
-485.252
-488.189
-489.836
-490.552
-490.593
-490.162
-489.413
-488.47
-487.421
-486.101
-485.244
3.54399
-0.0299293
0.221852
-0.0114151
-0.197627
-0.152923
-0.163814
0.25765
0.557986
1.54541
2.49336
4.33639
6.08718
8.53231
10.8493
13.1028
14.6533
14.6013
12.5781
6.96754
-1.84511
-16.4217
-36.5478
-64.9699
-102.323
-146.787
-193.492
-241.299
-287.824
-331.461
-370.397
-403.452
-430.428
-451.45
-467.269
-478.636
-486.357
-491.405
-494.549
-496.327
-497.125
-497.216
-496.809
-496.066
-495.113
-494.042
-492.692
-491.821
3.56862
-0.00558389
0.24822
0.0202156
-0.171285
-0.125593
-0.141266
0.270716
0.565355
1.53114
2.45315
4.25019
5.90946
8.23056
10.3329
12.3144
13.5103
12.9859
10.5026
4.29891
-5.00742
-20.1043
-40.5856
-69.1594
-106.265
-149.988
-195.842
-242.95
-289.09
-332.784
-372.079
-405.754
-433.484
-455.291
-471.84
-483.837
-492.055
-497.471
-500.874
-502.829
-503.75
-503.923
-503.563
-502.837
-501.881
-500.795
-499.42
-498.542
3.59279
0.0187613
0.27443
0.0516832
-0.145005
-0.0983224
-0.118885
0.28375
0.572031
1.51609
2.4102
4.15934
5.72168
7.91162
9.78707
11.48
12.3014
11.2809
8.31583
1.50215
-8.3078
-23.9219
-44.7432
-73.4339
-110.239
-153.172
-198.112
-244.447
-290.123
-333.791
-373.394
-407.669
-436.162
-458.782
-476.109
-488.798
-497.586
-503.437
-507.153
-509.331
-510.413
-510.697
-510.405
-509.718
-508.78
-507.698
-506.309
-505.434
3.61646
0.0431118
0.300475
0.0829835
-0.11879
-0.0710994
-0.0966688
0.296809
0.578057
1.50041
2.36472
4.06426
5.52461
7.57677
9.21435
10.6033
11.0322
9.4948
6.02972
-1.40634
-11.7256
-27.8486
-48.99
-77.7582
-114.206
-156.3
-200.263
-245.746
-290.87
-334.426
-374.283
-409.137
-438.401
-461.868
-480.02
-493.47
-502.909
-509.275
-513.377
-515.841
-517.133
-517.563
-517.367
-516.737
-515.831
-514.762
-513.37
-512.514
3.63963
0.067474
0.326347
0.114112
-0.0926426
-0.043909
-0.0746142
0.309957
0.583488
1.48428
2.31696
3.96544
5.3192
7.22761
8.61756
9.6888
9.70966
7.63815
3.65819
-4.4077
-15.2374
-31.8558
-53.2928
-82.0951
-118.127
-159.33
-202.251
-246.8
-291.278
-334.631
-374.682
-410.092
-440.135
-464.484
-483.509
-497.789
-507.966
-514.927
-519.486
-522.297
-523.85
-524.468
-524.403
-523.865
-523.019
-521.988
-520.609
-519.783
3.66225
0.0918551
0.352039
0.145063
-0.066564
-0.016736
-0.0527149
0.323262
0.588389
1.4679
2.26719
3.86347
5.10656
6.866
8.00006
8.74184
8.34177
5.72287
1.21719
-7.48083
-18.8175
-35.9128
-57.6164
-86.4058
-121.962
-162.221
-204.031
-247.558
-291.29
-334.343
-374.523
-410.46
-441.286
-466.549
-486.506
-501.687
-512.681
-520.321
-525.416
-528.64
-530.505
-531.353
-531.453
-531.032
-530.266
-529.292
-527.946
-527.172
3.68431
0.116263
0.377542
0.175833
-0.0405557
0.0104359
-0.0309627
0.336794
0.592838
1.45149
2.21577
3.75897
4.88793
6.49408
7.36564
7.76844
6.93768
3.76243
-1.27553
-10.6027
-22.438
-39.9867
-61.9237
-90.65
-125.669
-164.928
-205.556
-247.969
-290.849
-333.498
-373.734
-410.161
-441.768
-467.974
-488.916
-505.067
-516.954
-525.351
-531.057
-534.754
-536.979
-538.098
-538.401
-538.127
-537.467
-536.573
-535.276
-534.57
3.70577
0.140707
0.402848
0.206417
-0.0146189
0.0376234
-0.00934758
0.350627
0.596918
1.43525
2.16304
3.65266
4.66472
6.11421
6.71853
6.77532
5.50747
1.77152
-3.80074
-13.7486
-26.0697
-44.0435
-66.1767
-94.7872
-129.206
-167.409
-206.781
-247.983
-289.898
-332.03
-372.239
-409.109
-441.487
-468.657
-490.626
-507.792
-520.634
-529.862
-536.244
-540.478
-543.118
-544.555
-545.099
-545.007
-544.485
-543.697
-542.47
-541.856
3.72661
0.165197
0.427948
0.236808
0.011246
0.064844
0.0121423
0.364839
0.600725
1.41944
2.10941
3.54529
4.43842
5.72898
6.06326
5.76971
4.06198
-0.234191
-6.33802
-16.8929
-29.6819
-48.0482
-70.3366
-98.7766
-132.533
-169.62
-207.661
-247.551
-288.38
-329.874
-369.958
-407.209
-440.333
-468.476
-491.499
-509.703
-523.534
-533.644
-540.756
-545.572
-548.665
-550.451
-551.262
-551.373
-551.005
-550.345
-549.21
-548.709
3.74678
0.189743
0.452833
0.267001
0.0370385
0.0921154
0.0335204
0.379505
0.604359
1.40427
2.0553
3.43765
4.21062
5.34111
5.40463
4.7593
2.61266
-2.23834
-8.86618
-20.009
-33.2435
-51.9652
-74.3648
-102.578
-135.609
-171.522
-208.152
-246.626
-286.245
-326.968
-366.812
-404.363
-438.189
-467.294
-491.382
-510.642
-525.484
-536.514
-544.408
-549.858
-553.448
-555.622
-556.735
-557.083
-556.904
-556.399
-555.374
-555.005
3.76627
0.214359
0.477495
0.29699
0.0627586
0.119455
0.054802
0.394705
0.607929
1.39001
2.00115
3.33056
3.98297
4.95344
4.7476
3.75202
1.17127
-4.22421
-11.3637
-23.07
-36.7231
-55.7595
-78.2232
-106.153
-138.396
-173.075
-208.216
-245.168
-283.444
-323.253
-362.724
-400.47
-434.933
-464.967
-490.114
-510.444
-526.305
-538.271
-546.978
-553.099
-557.221
-559.811
-561.251
-561.855
-561.879
-561.549
-560.657
-560.445
3.78502
0.239056
0.501924
0.32677
0.0884064
0.146882
0.0760034
0.410514
0.611548
1.37688
1.94744
3.22488
3.75715
4.56889
4.0972
2.75591
-0.250309
-6.17506
-13.8089
-26.0495
-40.0897
-59.3963
-81.875
-109.465
-140.859
-174.246
-207.819
-243.142
-279.939
-318.678
-357.623
-395.438
-430.453
-461.372
-487.568
-508.974
-525.857
-538.769
-548.307
-555.116
-559.793
-562.829
-564.626
-565.518
-565.774
-565.642
-564.894
-564.854
3.803
0.263849
0.52611
0.356334
0.113982
0.174413
0.0971423
0.42701
0.615333
1.36512
1.89461
3.12142
3.53485
4.19035
3.45843
1.77893
-1.64036
-8.0745
-16.1809
-28.9216
-43.3132
-62.8427
-85.2855
-112.481
-142.967
-175.005
-206.934
-240.523
-275.701
-313.203
-351.45
-389.183
-424.644
-456.391
-483.622
-506.113
-524.016
-537.876
-548.28
-555.826
-561.103
-564.621
-566.804
-568.007
-568.517
-568.606
-568.025
-568.181
3.82017
0.288754
0.550044
0.385674
0.139486
0.202066
0.118237
0.444265
0.619401
1.35498
1.84313
3.02103
3.31771
3.82065
2.83612
0.828785
-2.98758
-9.90679
-18.4594
-31.6614
-46.3652
-66.0677
-88.4228
-115.168
-144.693
-175.328
-205.542
-237.294
-270.712
-306.802
-344.16
-381.64
-417.416
-449.918
-478.16
-501.75
-520.705
-535.522
-546.791
-555.09
-560.995
-565.027
-567.628
-569.171
-569.959
-570.292
-569.896
-570.271
3.83647
0.313786
0.573715
0.414784
0.164919
0.229858
0.139308
0.462351
0.623873
1.34666
1.79346
2.92449
3.10733
3.46254
2.23491
-0.0872119
-4.28128
-11.6572
-20.6255
-34.2461
-49.2192
-69.043
-91.2586
-117.503
-146.015
-175.199
-203.631
-233.449
-264.968
-299.465
-335.729
-372.758
-408.697
-441.863
-471.09
-495.81
-515.876
-531.691
-543.864
-552.963
-559.537
-564.129
-567.193
-569.116
-570.216
-570.826
-570.64
-571.258
3.85188
0.338965
0.597112
0.443655
0.190281
0.257806
0.160375
0.481336
0.628866
1.34038
1.74603
2.83256
2.9052
3.11857
1.65906
-0.962321
-5.51166
-13.3122
-22.6619
-36.6547
-51.8517
-71.7442
-93.7689
-119.464
-146.917
-174.606
-201.199
-228.994
-258.482
-291.204
-326.155
-362.512
-398.433
-432.149
-462.324
-488.195
-509.443
-526.325
-539.438
-549.382
-556.689
-561.894
-565.465
-567.803
-569.242
-570.155
-570.203
-571.095
3.86633
0.364307
0.620226
0.472281
0.215571
0.285925
0.181459
0.501283
0.634497
1.33633
1.70127
2.74594
2.7127
2.79108
1.11247
-1.79047
-6.66992
-14.8597
-24.5532
-38.8691
-54.2424
-74.1506
-95.9348
-121.035
-147.389
-173.546
-198.251
-223.947
-251.279
-282.048
-315.46
-350.904
-386.594
-420.715
-451.775
-478.812
-501.322
-519.38
-533.507
-544.351
-552.45
-558.326
-562.472
-565.295
-567.134
-568.404
-568.727
-569.922
3.87977
0.389833
0.643044
0.500653
0.24079
0.314231
0.202581
0.522252
0.640881
1.3347
1.65957
2.66529
2.5311
2.48219
0.598574
-2.56635
-7.7484
-16.2895
-26.2863
-40.8737
-56.3746
-76.2462
-97.7419
-122.206
-147.427
-172.024
-194.803
-218.335
-243.402
-272.047
-303.691
-337.962
-373.179
-407.515
-439.356
-467.539
-491.361
-510.688
-525.909
-537.704
-546.659
-553.274
-558.052
-561.416
-563.7
-565.367
-566.006
-567.552
3.89215
0.415564
0.665556
0.528762
0.265937
0.342737
0.223765
0.544296
0.648128
1.33564
1.6213
2.59117
2.3615
2.19375
0.120325
-3.28541
-8.74061
-17.5929
-27.8504
-42.6563
-58.2356
-78.0191
-99.181
-122.971
-147.033
-170.047
-190.875
-212.196
-234.903
-261.268
-290.919
-323.745
-358.213
-392.53
-424.989
-454.235
-479.354
-500.009
-516.41
-529.185
-539.015
-546.41
-551.858
-555.804
-558.582
-560.689
-561.674
-563.591
3.90341
0.44152
0.68775
0.556599
0.291012
0.371458
0.245033
0.567468
0.656349
1.3393
1.58681
2.52413
2.2049
1.92739
-0.319762
-3.94388
-9.64122
-18.7627
-29.2367
-44.2073
-59.8158
-79.4616
-100.247
-123.33
-146.209
-167.629
-186.493
-205.572
-225.844
-249.79
-277.234
-308.337
-341.756
-375.769
-408.618
-438.768
-465.093
-487.042
-504.636
-518.409
-529.105
-537.315
-543.487
-548.054
-551.365
-553.941
-555.291
-557.587
3.91349
0.467724
0.709614
0.584154
0.316014
0.400404
0.266411
0.591815
0.665651
1.34583
1.55642
2.46463
2.06216
1.68447
-0.719595
-4.53867
-10.4459
-19.7936
-30.4384
-45.5198
-61.109
-80.5687
-100.937
-123.282
-144.965
-164.787
-181.685
-198.507
-216.29
-237.7
-262.74
-291.848
-323.899
-357.279
-390.223
-421.038
-448.397
-471.529
-490.257
-504.997
-516.482
-525.43
-532.327
-537.556
-541.439
-544.502
-546.219
-548.883
3.92233
0.494196
0.731137
0.611419
0.340942
0.42959
0.287928
0.617385
0.676145
1.35535
1.53044
2.41311
1.93406
1.4662
-1.07745
-5.0673
-11.1514
-20.6814
-31.4509
-46.5894
-62.1113
-81.3386
-101.251
-122.831
-143.307
-161.537
-176.482
-191.049
-206.31
-225.09
-247.553
-274.407
-304.768
-337.161
-369.848
-401.023
-429.175
-453.323
-473.11
-488.815
-501.104
-510.741
-518.315
-524.221
-528.717
-532.3
-534.422
-537.478
3.92986
0.520961
0.752307
0.638384
0.365794
0.459026
0.309611
0.64422
0.687933
1.36799
1.50915
2.36995
1.82121
1.27353
-1.39202
-5.52802
-11.7553
-21.4235
-32.2714
-47.4141
-62.8222
-81.7724
-101.193
-121.984
-141.249
-157.899
-170.916
-183.248
-195.975
-212.06
-231.8
-256.163
-284.521
-315.561
-347.619
-378.809
-407.466
-432.416
-453.138
-469.763
-482.872
-493.204
-501.44
-508.036
-513.203
-517.383
-520.012
-523.544
3.93602
0.548039
0.773114
0.665037
0.39057
0.488722
0.33149
0.672355
0.701114
1.38383
1.49278
2.33542
1.7241
1.10712
-1.66248
-5.91987
-12.2567
-22.0194
-32.8997
-47.9953
-63.2445
-81.8753
-100.771
-120.751
-138.807
-153.901
-165.024
-175.157
-185.363
-198.715
-215.619
-237.286
-263.352
-292.691
-323.751
-354.62
-383.509
-409.096
-430.683
-448.229
-462.212
-473.307
-482.209
-489.459
-495.317
-500.173
-503.397
-507.434
3.94073
0.575454
0.793545
0.69137
0.415266
0.518685
0.353595
0.701821
0.715785
1.40295
1.48156
2.30974
1.64307
0.967394
-1.88843
-6.24255
-12.6556
-22.4697
-33.3373
-48.3366
-63.3841
-81.6552
-99.9938
-119.146
-136
-149.568
-158.846
-166.832
-174.549
-185.158
-199.147
-217.949
-241.468
-268.785
-298.507
-328.743
-357.635
-383.734
-406.164
-424.68
-439.627
-451.613
-461.285
-469.188
-475.669
-481.161
-485.016
-489.652
3.94393
0.603225
0.81359
0.717372
0.43988
0.548923
0.375961
0.732641
0.732039
1.42541
1.47566
2.29308
1.57836
0.854566
-2.06983
-6.49637
-12.9529
-22.7767
-33.5881
-48.4437
-63.2486
-81.1223
-98.8751
-117.184
-132.848
-144.93
-152.421
-158.325
-163.603
-171.484
-182.513
-198.319
-219.073
-244.083
-272.161
-301.49
-330.193
-356.707
-379.979
-399.544
-415.562
-428.549
-439.128
-447.848
-455.088
-461.322
-465.917
-471.258
3.94553
0.631373
0.833239
0.743031
0.46441
0.579439
0.398624
0.764837
0.749966
1.45126
1.47524
2.28554
1.53008
0.768649
-2.20699
-6.68219
-13.1505
-22.9436
-33.6568
-48.3241
-62.8479
-80.2887
-97.429
-114.883
-129.374
-140.015
-145.786
-149.684
-152.591
-157.781
-165.833
-178.548
-196.357
-218.808
-244.958
-273.127
-301.473
-328.327
-352.457
-373.164
-390.388