/*--------------------------------*- C++ -*----------------------------------*\
  =========                 |
  \\      /  F ield         | OpenFOAM: The Open Source CFD Toolbox
   \\    /   O peration     | Website:  https://openfoam.org
    \\  /    A nd           | Version:  10
     \\/     M anipulation  |
\*---------------------------------------------------------------------------*/
FoamFile
{
    format      ascii;
    class       surfaceScalarField;
    location    "10";
    object      phi;
}
// * * * * * * * * * * * * * * * * * * * * * * * * * * * * * * * * * * * * * //

dimensions      [0 3 -1 0 0 0 0];

internalField   nonuniform List<scalar> 
75600
(
2.15974
-1218.05
1218.5
1.79282
-1008.34
1008.71
1.48954
-834.726
835.03
1.23881
-691.247
691.497
1.03115
-572.354
572.562
0.859544
-473.941
474.113
0.717375
-392.485
392.627
0.599696
-325.25
325.368
0.502226
-269.396
269.493
0.421401
-223.409
223.489
0.354501
-185.277
185.344
0.298781
-153.872
153.928
0.252634
-127.838
127.884
0.214156
-106.56
106.599
0.182011
-88.904
88.9362
0.155214
-74.6003
74.6271
0.132576
-62.8531
62.8757
0.113489
-53.4291
53.4482
0.097148
-45.874
45.8904
0.0830009
-39.9783
39.9925
0.0705569
-35.496
35.5085
0.0593404
-32.2932
32.3045
0.0490219
-30.2413
30.2516
0.0393047
-29.2853
29.295
0.0300104
-29.3018
29.3111
0.0228203
-23.5067
23.5138
0.0173587
-18.8692
18.8746
0.0132727
-15.149
15.1531
0.0102009
-12.1401
12.1432
0.00789179
-9.71672
9.71903
0.00612476
-7.78159
7.78336
0.00477414
-6.22739
6.22874
0.00378345
-4.98149
4.98248
0.003056
-3.99121
3.99193
0.00241229
-3.20223
3.20287
0.00192224
-2.56794
2.56842
0.00130252
-2.06086
2.06149
0.00101318
-1.64723
1.64752
0.000630535
-1.3244
1.32477
0.000551188
-1.06569
1.06576
0.000311348
-0.867908
0.868142
-0.000275074
-0.699257
0.69984
-0.000476858
-0.580972
0.581147
-0.000735619
-0.483669
0.483937
-0.00101135
-0.411971
0.412225
-0.00129595
-0.361631
0.361914
-0.00165434
-0.328842
0.32919
-0.313262
0.313818
-0.00223577
2.18727
-1217.53
1.81594
-1007.95
1.50909
-834.529
1.25498
-690.962
1.04464
-572.134
0.870629
-473.79
0.726419
-392.404
0.607112
-325.064
0.508134
-269.361
0.426184
-223.301
0.358241
-185.228
0.301727
-153.792
0.254894
-127.853
0.215884
-106.489
0.183304
-88.9378
0.15618
-74.5633
0.133291
-62.8606
0.114048
-53.4027
0.0976183
-45.8562
0.0834709
-39.9484
0.0710913
-35.4709
0.0600131
-32.2638
0.0498882
-30.2202
0.0404315
-29.2681
0.0314588
-29.289
0.0244958
-23.4987
0.0192274
-18.8541
0.0153428
-15.1218
0.0124772
-12.1248
0.0103719
-9.71708
0.00881753
-7.78456
0.00767576
-6.2324
0.00685294
-4.99091
0.00628348
-3.99539
0.00573803
-3.19933
0.00540414
-2.56242
0.00496722
-2.05328
0.00466736
-1.65085
0.00435302
-1.32664
0.00405977
-1.06971
0.00424328
-0.86438
0.003055
-0.705751
0.00321765
-0.578822
0.00273721
-0.483636
0.00234675
-0.411793
0.00195473
-0.361148
0.00145774
-0.328327
-0.312477
0.000806682
2.21679
-1217.08
1.84087
-1007.57
1.52933
-834.217
1.27147
-690.704
1.05786
-571.92
0.880949
-473.613
0.734417
-392.257
0.613009
-324.942
0.512445
-269.261
0.429008
-223.218
0.359907
-185.159
0.302512
-153.734
0.254827
-127.805
0.215261
-106.449
0.182185
-88.9048
0.15468
-74.5358
0.131555
-62.8375
0.112129
-53.3833
0.0956333
-45.8397
0.0814915
-39.9343
0.0691979
-35.4586
0.0582898
-32.2529
0.0484083
-30.2103
0.0392747
-29.2589
0.0307034
-29.2804
0.0240276
-23.492
0.0189953
-18.8491
0.0153431
-15.1182
0.0127206
-12.1222
0.0108718
-9.71524
0.00959304
-7.78327
0.00871005
-6.2315
0.00808369
-4.99027
0.00769964
-3.99499
0.00726863
-3.19891
0.00715791
-2.56238
0.00696592
-2.05311
0.00662923
-1.65055
0.00639142
-1.32629
0.00583429
-1.06926
0.00615251
-0.864262
0.00503703
-0.704985
0.00510972
-0.578599
0.00445354
-0.483055
0.00387738
-0.411294
0.00331288
-0.360658
0.00268809
-0.327774
-0.311815
0.00195969
2.2481
-1216.62
1.8668
-1007.19
1.55059
-833.901
1.2887
-690.442
1.07165
-571.703
0.891806
-473.433
0.742791
-392.108
0.619294
-324.819
0.516972
-269.158
0.432069
-223.133
0.36175
-185.089
0.30335
-153.676
0.254841
-127.757
0.214609
-106.409
0.181004
-88.8712
0.153091
-74.5079
0.129664
-62.8141
0.110034
-53.3637
0.0934237
-45.8231
0.0792513
-39.9201
0.067006
-35.4464
0.0562182
-32.2422
0.0465219
-30.2006
0.0376321
-29.2501
0.0293556
-29.2721
0.0228672
-23.4855
0.0179878
-18.8442
0.0145094
-15.1147
0.0120868
-12.1198
0.0104617
-9.71363
0.00942624
-7.78223
0.0087773
-6.23083
0.0083572
-4.98983
0.00817663
-3.9948
0.00786458
-3.19863
0.00793338
-2.56256
0.0078642
-2.05308
0.00754196
-1.6503
0.00736623
-1.32596
0.00669903
-1.0688
0.00705477
-0.864016
0.00588157
-0.704228
0.00577977
-0.578271
0.00508536
-0.482427
0.00439166
-0.410696
0.00367632
-0.36003
0.00292198
-0.327105
-0.311093
0.00213793
2.28155
-1216.15
1.89448
-1006.81
1.57332
-833.58
1.30721
-690.176
1.08658
-571.483
0.903716
-473.25
0.752157
-391.957
0.626521
-324.693
0.522413
-269.054
0.43602
-223.046
0.364462
-185.017
0.305036
-153.617
0.255685
-127.708
0.214764
-106.368
0.180604
-88.837
0.15225
-74.4795
0.128481
-62.7903
0.108599
-53.3438
0.0918148
-45.8063
0.0775392
-39.9058
0.0652539
-35.4341
0.0544796
-32.2314
0.0448407
-30.191
0.0360417
-29.2413
0.0278791
-29.264
0.0214399
-23.4791
0.0166053
-18.8394
0.0132116
-15.1113
0.0109136
-12.1175
0.00944609
-9.71217
0.00859366
-7.78136
0.00812522
-6.23032
0.00787604
-4.98956
0.0078614
-3.99479
0.00766227
-3.19847
0.0078296
-2.56288
0.00783385
-2.05312
0.0075112
-1.65006
0.00738635
-1.32565
0.00667205
-1.06839
0.00692597
-0.863725
0.00584535
-0.703516
0.00551038
-0.577822
0.00481292
-0.481786
0.00405762
-0.410029
0.003285
-0.359334
0.00248835
-0.3264
-0.310356
0.00167906
2.31741
-1215.67
1.92429
-1006.41
1.59797
-833.254
1.32749
-689.905
1.10318
-571.258
0.917207
-473.064
0.763047
-391.802
0.635234
-324.565
0.529307
-268.948
0.4414
-222.958
0.368583
-184.944
0.308116
-153.556
0.257905
-127.657
0.216277
-106.327
0.181541
-88.8023
0.152723
-74.4506
0.128586
-62.7662
0.108418
-53.3236
0.0914209
-45.7893
0.0769943
-39.8914
0.0646119
-35.4218
0.0537813
-32.2206
0.044116
-30.1813
0.0353061
-29.2325
0.0271356
-29.2558
0.020651
-23.4726
0.0157872
-18.8345
0.012419
-15.108
0.0101988
-12.1153
0.00885123
-9.71084
0.0081502
-7.78065
0.00783357
-6.22997
0.00773366
-4.98944
0.007856
-3.99491
0.00776329
-3.19843
0.00798633
-2.56327
0.00805073
-2.05321
0.00772854
-1.64984
0.00763547
-1.32537
0.00692293
-1.068
0.00700112
-0.863404
0.00606303
-0.702867
0.00553726
-0.577299
0.00483761
-0.481144
0.00406385
-0.409352
0.00327885
-0.358639
0.00251311
-0.325724
-0.309673
0.00173927
2.35574
-1215.19
1.95617
-1006.01
1.62438
-832.922
1.34929
-689.63
1.12109
-571.03
0.931868
-472.875
0.77498
-391.646
0.644888
-324.435
0.537061
-268.84
0.447572
-222.869
0.373442
-184.87
0.311885
-153.494
0.260775
-127.606
0.218405
-106.284
0.183063
-88.767
0.153752
-74.4213
0.129218
-62.7416
0.108737
-53.3031
0.0914971
-45.7721
0.0768876
-39.8768
0.0643709
-35.4093
0.0534413
-32.2097
0.0436973
-30.1716
0.0348115
-29.2236
0.0265518
-29.2475
0.0199533
-23.466
0.0150051
-18.8296
0.0116205
-15.1046
0.00944865
-12.1132
0.00820096
-9.7096
0.00763918
-7.78007
0.0074653
-6.22975
0.00751156
-4.98945
0.00776113
-3.99517
0.00777948
-3.1985
0.00803789
-2.56371
0.00815851
-2.05335
0.00784359
-1.64966
0.00776135
-1.32513
0.00708299
-1.06762
0.00697319
-0.863047
0.00615404
-0.702252
0.00550864
-0.576722
0.00479655
-0.480502
0.00404006
-0.408679
0.00326045
-0.357958
0.00253658
-0.325093
-0.309071
0.00183394
2.39663
-1214.7
1.99022
-1005.61
1.65263
-832.584
1.37266
-689.35
1.14037
-570.798
0.947711
-472.682
0.787956
-391.486
0.655473
-324.303
0.545655
-268.731
0.454509
-222.778
0.379002
-184.795
0.316305
-153.432
0.264252
-127.554
0.221103
-106.241
0.185121
-88.731
0.155287
-74.3914
0.130329
-62.7167
0.109508
-53.2822
0.0919974
-45.7546
0.077175
-39.862
0.0644909
-35.3966
0.0534233
-32.1986
0.0435527
-30.1618
0.0345302
-29.2146
0.0261034
-29.2391
0.0193228
-23.4592
0.0142342
-18.8245
0.0107916
-15.1012
0.0086398
-12.111
0.0074748
-9.70845
0.00704411
-7.77962
0.00700858
-6.22967
0.00720261
-4.98962
0.00757416
-3.99555
0.00771068
-3.19868
0.0079934
-2.56417
0.00816802
-2.05355
0.00787032
-1.6495
0.00777961
-1.32493
0.0071508
-1.06725
0.00687286
-0.862661
0.00613186
-0.701641
0.00543257
-0.5761
0.00470157
-0.479868
0.00397011
-0.408033
0.00322845
-0.357294
0.00254874
-0.324486
-0.308527
0.00192023
2.4402
-1214.2
2.02651
-1005.19
1.68279
-832.241
1.39767
-689.065
1.16106
-570.561
0.964803
-472.486
0.802044
-391.323
0.667055
-324.168
0.555155
-268.619
0.462278
-222.685
0.385334
-184.718
0.321446
-153.368
0.268406
-127.501
0.224441
-106.197
0.187786
-88.6944
0.1574
-74.361
0.131987
-62.6913
0.110797
-53.261
0.0929851
-45.7368
0.0779167
-39.847
0.0650271
-35.3837
0.0537759
-32.1874
0.0437233
-30.1517
0.0344939
-29.2053
0.0258096
-29.2304
0.0187684
-23.4522
0.0134748
-18.8192
0.00992533
-15.0977
0.00775972
-12.1089
0.00665584
-9.70736
0.00634504
-7.77928
0.00644137
-6.22971
0.00678312
-4.98993
0.00726996
-3.99604
0.0075301
-3.19899
0.00783025
-2.56464
0.00805448
-2.0538
0.00778387
-1.64936
0.0076702
-1.32476
0.00709235
-1.06689
0.0066839
-0.862248
0.00598413
-0.701033
0.00527218
-0.575455
0.00454282
-0.479238
0.00383812
-0.407419
0.00315725
-0.356684
0.00253976
-0.323935
-0.308055
0.00198065
2.48656
-1213.69
2.06517
-1004.77
1.71497
-831.891
1.42442
-688.775
1.18328
-570.32
0.983242
-472.286
0.817338
-391.157
0.679738
-324.03
0.565664
-268.505
0.470985
-222.59
0.392546
-184.64
0.327418
-153.303
0.27335
-127.447
0.228534
-106.152
0.191172
-88.6571
0.160202
-74.33
0.134305
-62.6654
0.112714
-53.2394
0.0945679
-45.7186
0.0792157
-39.8316
0.0660774
-35.3706
0.0545907
-32.1759
0.0442915
-30.1414
0.0347733
-29.1958
0.0257271
-29.2214
0.0183354
-23.4448
0.0127626
-18.8137
0.00904961
-15.094
0.00683003
-12.1067
0.00576077
-9.70631
0.00555476
-7.77905
0.0057738
-6.22988
0.00626081
-4.99039
0.00685499
-3.99664
0.00724159
-3.19942
0.00755631
-2.5651
0.00782395
-2.05411
0.00758794
-1.64926
0.00744401
-1.32459
0.00690852
-1.06653
0.00641137
-0.861804
0.0057345
-0.700433
0.00502985
-0.574814
0.00432392
-0.478613
0.00365448
-0.406829
0.00303893
-0.356125
0.00249662
-0.323449
-0.307659
0.00200259
2.53584
-1213.17
2.1063
-1004.34
1.74925
-831.534
1.45299
-688.478
1.2071
-570.074
1.00312
-472.082
0.833934
-390.988
0.693611
-323.89
0.577283
-268.388
0.480734
-222.494
0.400744
-184.56
0.334328
-153.236
0.279192
-127.392
0.233489
-106.106
0.195389
-88.619
0.163803
-74.2983
0.13739
-62.639
0.115366
-53.2174
0.0968481
-45.7001
0.0811704
-39.8159
0.0677337
-35.3572
0.0559517
-32.1642
0.0453321
-30.1308
0.0354311
-29.1859
0.0259042
-29.2118
0.0180595
-23.4369
0.0121234
-18.8078
0.00818155
-15.09
0.00586096
-12.1044
0.00479437
-9.70526
0.00467372
-7.7789
0.00500357
-6.23016
0.00563051
-4.99099
0.0063236
-3.99733
0.00683634
-3.19996
0.00716667
-2.56556
0.00747042
-2.05446
0.00727327
-1.64918
0.00709802
-1.32442
0.00659312
-1.06617
0.00604667
-0.861339
0.00539627
-0.699846
0.00471651
-0.574193
0.00404202
-0.478004
0.00341138
-0.406252
0.00285121
-0.355587
0.00237926
-0.322978
-0.307258
0.00195055
2.58816
-1212.65
2.15
-1003.9
1.78575
-831.169
1.4835
-688.176
1.23263
-569.824
1.02452
-471.874
0.851931
-390.816
0.708785
-323.747
0.59012
-268.27
0.491635
-222.395
0.410041
-184.478
0.342295
-153.169
0.286054
-127.336
0.239429
-106.06
0.200558
-88.5801
0.168326
-74.2661
0.141364
-62.612
0.11887
-53.1949
0.0999403
-45.6812
0.0838901
-39.7999
0.0700992
-35.3434
0.0579538
-32.1521
0.0469291
-30.1198
0.0365387
-29.1756
0.0263953
-29.2017
0.0179823
-23.4285
0.0115874
-18.8014
0.00734218
-15.0858
0.0048658
-12.1019
0.0037639
-9.70417
0.00370433
-7.77881
0.00412993
-6.23054
0.00488811
-4.99172
0.00567141
-3.99811
0.00630653
-3.20062
0.00665694
-2.56602
0.0069886
-2.05482
0.00683068
-1.64913
0.00662709
-1.32425
0.00614821
-1.06581
0.00559316
-0.860868
0.00498488
-0.69929
0.00435111
-0.573616
0.00372554
-0.477448
0.00315055
-0.405745
0.00264903
-0.355136
0.00224225
-0.322597
-0.306929
0.00187114
2.64365
-1212.11
2.1964
-1003.46
1.82456
-830.798
1.51603
-687.867
1.25997
-569.568
1.04757
-471.661
0.871441
-390.639
0.725373
-323.601
0.604294
-268.149
0.503813
-222.295
0.420568
-184.395
0.35145
-153.099
0.294068
-127.279
0.24649
-106.012
0.206817
-88.5405
0.173907
-74.2331
0.14636
-62.5845
0.123359
-53.1719
0.103973
-45.6618
0.0874974
-39.7834
0.0732892
-35.3292
0.060703
-32.1395
0.0491771
-30.1083
0.0381756
-29.1646
0.0272627
-29.1908
0.0181513
-23.4194
0.0111905
-18.7944
0.00655706
-15.0812
0.00386177
-12.0992
0.00267965
-9.70301
0.00265126
-7.77874
0.0031538
-6.23099
0.0040307
-4.99256
0.00489567
-3.99896
0.00564581
-3.20138
0.00602342
-2.56648
0.00637355
-2.05521
0.0062515
-1.6491
0.00603023
-1.32409
0.00558764
-1.06545
0.00506164
-0.860404
0.00449841
-0.698766
0.00391376
-0.573069
0.00335387
-0.476921
0.00285653
-0.40529
0.00242991
-0.354761
0.00209565
-0.322304
-0.306694
0.00178875
2.70246
-1211.55
2.24561
-1003
1.86581
-830.418
1.55071
-687.552
1.28924
-569.306
1.07239
-471.445
0.892591
-390.46
0.743505
-323.451
0.619943
-268.025
0.517411
-222.192
0.43247
-184.31
0.361945
-153.029
0.30339
-127.22
0.254829
-105.963
0.214322
-88.5
0.180702
-74.1994
0.152536
-62.5563
0.128985
-53.1483
0.109094
-45.642
0.0921358
-39.7665
0.077439
-35.3146
0.0643241
-32.1264
0.0521883
-30.0962
0.0404388
-29.1528
0.0285836
-29.1789
0.0186282
-23.4095
0.0109812
-18.7868
0.00586377
-15.0761
0.0028772
-12.0962
0.0015625
-9.7017
0.00152889
-7.77865
0.00208542
-6.23149
0.00306417
-4.99351
0.00400248
-3.99989
0.00485693
-3.20223
0.00526987
-2.56697
0.0056289
-2.0556
0.00553952
-1.6491
0.00532454
-1.32392
0.00494115
-1.06512
0.00447282
-0.859981
0.00395296
-0.698296
0.0034146
-0.572559
0.00292331
-0.476415
0.00250076
-0.404843
0.00213981
-0.354374
0.00186431
-0.321967
-0.306375
0.00161147
2.76472
-1210.99
2.29777
-1002.53
1.90962
-830.03
1.58766
-687.23
1.32056
-569.039
1.0991
-471.223
0.915519
-390.276
0.763335
-323.299
0.637227
-267.899
0.532596
-222.088
0.445922
-184.223
0.373958
-152.957
0.314201
-127.16
0.264629
-105.914
0.22326
-88.4587
0.188898
-74.165
0.160074
-62.5275
0.135931
-53.1241
0.115482
-45.6215
0.0979752
-39.749
0.08271
-35.2993
0.0689679
-32.1127
0.056099
-30.0833
0.0434468
-29.1402
0.0304563
-29.1659
0.0194946
-23.3985
0.0110275
-18.7783
0.00531848
-15.0704
0.00195824
-12.0929
0.000450187
-9.7002
0.000367918
-7.77851
0.000950637
-6.23202
0.00200986
-4.99452
0.00301345
-4.00087
0.00395879
-3.20314
0.00441413
-2.56746
0.00477651
-2.05599
0.00472201
-1.64911
0.00454462
-1.32377
0.00424119
-1.06483
0.00384846
-0.859622
0.00339512
-0.697905
0.00294165
-0.572152
0.00255517
-0.476047
0.00222992
-0.40456
0.00194702
-0.35416
0.00173818
-0.321802
-0.306234
0.00154736
2.83058
-1210.42
2.35301
-1002.05
1.9561
-829.633
1.62698
-686.901
1.35404
-568.766
1.12781
-470.997
0.940342
-390.089
0.784977
-323.144
0.656265
-267.77
0.549493
-221.981
0.461054
-184.135
0.387623
-152.883
0.326641
-127.099
0.276032
-105.863
0.233773
-88.4165
0.198636
-74.1299
0.169116
-62.498
0.144333
-53.0993
0.123267
-45.6005
0.105138
-39.7309
0.0892149
-35.2834
0.0747342
-32.0983
0.060994
-30.0696
0.0472658
-29.1265
0.0329235
-29.1515
0.020775
-23.3864
0.0113388
-18.7689
0.00491754
-15.064
0.00108998
-12.089
-0.000681694
-9.69843
-0.00086435
-7.77825
-0.000288939
-6.23253
0.00082467
-4.99557
0.00188483
-4.00189
0.00290574
-3.2041
0.00340719
-2.56797
0.00377527
-2.05638
0.00376643
-1.64915
0.00365625
-1.32365
0.0034423
-1.06461
0.0031243
-0.859316
0.00274335
-0.697544
0.00238329
-0.571774
0.0020967
-0.475719
0.00185435
-0.404321
0.00163816
-0.353974
0.00148801
-0.32165
-0.306092
0.00134743
2.9002
-1209.83
2.41146
-1001.57
2.0054
-829.227
1.66882
-686.565
1.38982
-568.487
1.15868
-470.766
0.967219
-389.897
0.808607
-322.985
0.677244
-267.639
0.568299
-221.872
0.47807
-184.045
0.403152
-152.809
0.340923
-127.037
0.289256
-105.811
0.246082
-88.3733
0.210138
-74.0939
0.17988
-62.4678
0.154406
-53.0738
0.132658
-45.5787
0.113828
-39.7121
0.0971462
-35.2668
0.0818021
-32.083
0.0670357
-30.0549
0.0520376
-29.1115
0.0361034
-29.1356
0.0225685
-23.3728
0.0119985
-18.7583
0.00473065
-15.0568
0.000330367
-12.0846
-0.00178521
-9.69631
-0.00212872
-7.77781
-0.00160034
-6.23297
-0.000462863
-4.99662
0.000643593
-4.00293
0.00172412
-3.2051
0.00227141
-2.5685
0.00265544
-2.05677
0.0027122
-1.64923
0.00269905
-1.32362
0.00259529
-1.0645
0.00236997
-0.859107
0.00207319
-0.697264
0.0017987
-0.571468
0.00158622
-0.475448
0.00139994
-0.404111
0.00123944
-0.353794
0.00115106
-0.321485
-0.305928
0.00107604
2.97375
-1209.22
2.47329
-1001.07
2.05765
-828.811
1.71332
-686.22
1.42806
-568.202
1.19186
-470.53
0.99632
-389.702
0.8344
-322.823
0.700349
-267.505
0.589206
-221.761
0.497171
-183.953
0.420753
-152.732
0.357264
-126.974
0.304521
-105.759
0.260405
-88.3292
0.223623
-74.057
0.192585
-62.4368
0.166364
-53.0476
0.143864
-45.5563
0.124244
-39.6925
0.106691
-35.2493
0.0903447
-32.0667
0.074379
-30.0389
0.057896
-29.0951
0.0401032
-29.1178
0.0249617
-23.3577
0.0130768
-18.7464
0.00481337
-15.0485
-0.000277747
-12.0794
-0.00282861
-9.69374
-0.00340294
-7.77712
-0.00296824
-6.23329
-0.00184177
-4.99763
-0.000702647
-4.00396
0.000420786
-3.20613
0.00101086
-2.56906
0.00142633
-2.05718
0.00157511
-1.64938
0.00168377
-1.32368
0.00171023
-1.06451
0.00160646
-0.859024
0.00142572
-0.697124
0.00125416
-0.571325
0.0011186
-0.47535
0.000990047
-0.404069
0.000889398
-0.353778
0.000864603
-0.321491
-0.305951
0.000853802
3.0514
-1208.6
2.53863
-1000.55
2.113
-828.386
1.76062
-685.868
1.4689
-567.91
1.22752
-470.288
1.02782
-389.502
0.862542
-322.658
0.725779
-267.368
0.612425
-221.647
0.518578
-183.859
0.440652
-152.654
0.375893
-126.909
0.32206
-105.705
0.276982
-88.2842
0.239329
-74.0193
0.207467
-62.4049
0.18044
-53.0205
0.15711
-45.5329
0.136601
-39.672
0.118054
-35.2307
0.10055
-32.0492
0.0831926
-30.0216
0.0649857
-29.0769
0.0450402
-29.0978
0.0280506
-23.3407
0.0146518
-18.733
0.00522849
-15.0391
-0.000685221
-12.0735
-0.00377452
-9.69063
-0.00465974
-7.77609
-0.00437305
-6.23344
-0.00329708
-4.99855
-0.00214404
-4.00498
-0.000995962
-3.20717
-0.00036599
-2.56965
0.000100079
-2.05761
0.000370728
-1.64961
0.000615528
-1.32386
0.000767036
-1.06463
0.000772573
-0.859004
0.000689544
-0.697015
0.000594485
-0.571193
0.000511869
-0.475243
0.00043025
-0.403999
0.000388832
-0.353725
0.000429344
-0.32146
-0.305936
0.000480936
3.13334
-1207.97
2.60767
-1000.03
2.17161
-827.95
1.81089
-685.507
1.51252
-567.612
1.26583
-470.041
1.0619
-389.298
0.893235
-322.489
0.753746
-267.229
0.63818
-221.532
0.542522
-183.763
0.463091
-152.575
0.397061
-126.843
0.342129
-105.65
0.296068
-88.2382
0.257513
-73.9807
0.224779
-62.3722
0.196883
-52.9926
0.172639
-45.5087
0.151132
-39.6505
0.131453
-35.2111
0.112619
-32.0304
0.0936577
-30.0026
0.0734629
-29.0567
0.0510416
-29.0754
0.0319395
-23.3216
0.0168096
-18.7178
0.006046
-15.0284
-0.00083634
-12.0665
-0.00457943
-9.68685
-0.00586504
-7.77464
-0.00578847
-6.23334
-0.00480891
-4.99934
-0.00366822
-4.00597
-0.00251612
-3.2082
-0.00184642
-2.57027
-0.00131012
-2.05807
-0.000889622
-1.64995
-0.000490027
-1.3242
-0.000200128
-1.0649
-7.1735e-05
-0.859115
-5.01057e-05
-0.697016
-6.79932e-05
-0.571155
-9.17178e-05
-0.475213
-0.000110242
-0.403996
-7.32421e-05
-0.353745
4.92266e-05
-0.321513
-0.306019
0.000180246
3.21975
-1207.32
2.68056
-999.488
2.23364
-827.503
1.86429
-685.138
1.55907
-567.307
1.30698
-469.789
1.09876
-389.09
0.926689
-322.317
0.784477
-267.087
0.666708
-221.414
0.569254
-183.666
0.48833
-152.494
0.421033
-126.776
0.364997
-105.594
0.317936
-88.1911
0.278448
-73.9412
0.244793
-62.3386
0.215959
-52.9638
0.19071
-45.4835
0.168085
-39.6279
0.147123
-35.1902
0.126769
-32.0101
0.105968
-29.9819
0.0834956
-29.0343
0.0582439
-29.0501
0.0367414
-23.3001
0.0196443
-18.7007
0.00734302
-15.0161
-0.000668925
-12.0584
-0.00519483
-9.68227
-0.00698119
-7.77265
-0.00718349
-6.23293
-0.00635101
-4.99994
-0.00525757
-4.00688
-0.00412668
-3.20919
-0.00341458
-2.57091
-0.00279371
-2.05858
-0.0022143
-1.65041
-0.00165781
-1.32469
-0.00121899
-1.06531
-0.000948929
-0.859364
-0.000809286
-0.697161
-0.000742154
-0.571258
-0.000696758
-0.475313
-0.000640845
-0.404115
-0.000521318
-0.353887
-0.000322755
-0.321693
-0.306232
-0.000124925
3.31083
-1206.65
2.7575
-998.934
2.29927
-827.045
1.92099
-684.759
1.60876
-566.995
1.35116
-469.532
1.13862
-388.877
0.963132
-322.142
0.81821
-266.942
0.698263
-221.294
0.599039
-183.566
0.516641
-152.411
0.44809
-126.707
0.39095
-105.537
0.342875
-88.1431
0.302423
-73.9007
0.267796
-62.304
0.237951
-52.9339
0.211595
-45.4572
0.187722
-39.6041
0.165309
-35.1678
0.143226
-31.9881
0.120328
-29.959
0.0952607
-29.0093
0.0667926
-29.0216
0.042577
-23.2759
0.0232569
-18.6814
0.0092036
-15.002
-0.000114414
-12.049
-0.00556599
-9.67675
-0.00796508
-7.77
-0.00852499
-6.23213
-0.00789589
-5.0003
-0.0068877
-4.0077
-0.00580675
-3.2101
-0.00505065
-2.57155
-0.00433293
-2.05915
-0.00359737
-1.65099
-0.00289739
-1.32529
-0.00232207
-1.0658
-0.00192292
-0.859685
-0.00168111
-0.697372
-0.0015382
-0.571419
-0.00141856
-0.475461
-0.00127374
-0.40428
-0.00105697
-0.35408
-0.000769087
-0.321928
-0.306496
-0.000491834
3.40681
-1205.96
2.83866
-998.366
2.36867
-826.575
1.98118
-684.372
1.66176
-566.675
1.39857
-469.268
1.18168
-388.661
1.0028
-321.963
0.855197
-266.794
0.73311
-221.172
0.632152
-183.465
0.548312
-152.328
0.478526
-126.637
0.42029
-105.478
0.371189
-88.0941
0.329742
-73.8592
0.29409
-62.2684
0.263154
-52.9029
0.235582
-45.4296
0.210317
-39.5789
0.186272
-35.1438
0.162231
-31.9642
0.136954
-29.9337
0.108945
-28.9813
0.0768406
-28.9895
0.0495743
-23.2487
0.0277555
-18.6595
0.0117181
-14.986
0.000901896
-12.038
-0.00563233
-9.67013
-0.00876719
-7.76658
-0.00977347
-6.23084
-0.00941456
-5.00034
-0.00853284
-4.00836
-0.00752366
-3.2109
-0.00672367
-2.57218
-0.00590121
-2.05979
-0.0050084
-1.65171
-0.0041609
-1.32604
-0.00344205
-1.06644
-0.0029111
-0.860154
-0.00256637
-0.69772
-0.00233863
-0.5717
-0.00212682
-0.47572
-0.00187545
-0.404559
-0.00155077
-0.354397
-0.00116837
-0.322292
-0.306889
-0.000808218
3.50789
-1205.25
2.92425
-997.783
2.44204
-826.092
2.04504
-683.975
1.71828
-566.348
1.44944
-469
1.22819
-388.439
1.04593
-321.781
0.895698
-266.644
0.771523
-221.048
0.668882
-183.363
0.583641
-152.242
0.512649
-126.566
0.453327
-105.419
0.403192
-88.044
0.36072
-73.8166
0.323985
-62.2317
0.291876
-52.8708
0.262969
-45.4007
0.236157
-39.5521
0.210279
-35.1179
0.184032
-31.938
0.156068
-29.9058
0.124741
-28.95
0.0885475
-28.9533
0.057867
-23.218
0.0332536
-18.6349
0.0149825
-14.9677
0.00246022
-12.0253
-0.00532764
-9.66223
-0.0093327
-7.76224
-0.0108845
-6.22897
-0.0108722
-5
-0.0101653
-4.00881
-0.00924378
-3.21157
-0.00839277
-2.57279
-0.00746383
-2.06047
-0.00642869
-1.65253
-0.00543735
-1.32693
-0.00457091
-1.06724
-0.00391191
-0.860793
-0.00347287
-0.698224
-0.00316377
-0.572113
-0.00285943
-0.476097
-0.00250461
-0.404951
-0.00208026
-0.354828
-0.00161274
-0.322768
-0.307384
-0.00117668
3.61431
-1204.52
3.01448
-997.183
2.51958
-825.598
2.11279
-683.568
1.77853
-566.014
1.50398
-468.725
1.27838
-388.214
1.09279
-321.595
0.939982
-266.491
0.813785
-220.922
0.709525
-183.259
0.622934
-152.156
0.550773
-126.494
0.490382
-105.358
0.439207
-87.9929
0.395681
-73.773
0.357804
-62.1938
0.324429
-52.8374
0.29406
-45.3704
0.265532
-39.5236
0.237605
-35.0901
0.208881
-31.9094
0.177898
-29.8748
0.142849
-28.915
0.102077
-28.9125
0.0675932
-23.1836
0.0398694
-18.6071
0.0190974
-14.947
0.0046458
-12.0107
-0.00458047
-9.65286
-0.00960184
-7.75682
-0.0118097
-6.2264
-0.0122284
-4.99919
-0.011748
-4.00898
-0.0109265
-3.21208
-0.0100183
-2.57337
-0.0089755
-2.06121
-0.00780943
-1.65346
-0.00668422
-1.32792
-0.00567736
-1.06815
-0.00489931
-0.861549
-0.00437222
-0.698831
-0.00398203
-0.572613
-0.00358467
-0.476556
-0.00312997
-0.405433
-0.002612
-0.355358
-0.002062
-0.323345
-0.307977
-0.00154569
3.72631
-1203.78
3.10957
-996.566
2.60148
-825.09
2.18461
-683.151
1.84272
-565.672
1.56241
-468.445
1.33249
-387.984
1.14362
-321.406
0.988322
-266.336
0.860184
-220.794
0.75438
-183.153
0.666502
-152.068
0.593216
-126.421
0.531779
-105.297
0.479561
-87.9407
0.43495
-73.7283
0.395868
-62.1548
0.361131
-52.8026
0.329163
-45.3384
0.298738
-39.4933
0.268529
-35.0599
0.237035
-31.878
0.202675
-29.8405
0.163468
-28.8759
0.117595
-28.8666
0.0788931
-23.1449
0.0477233
-18.5758
0.0241668
-14.9234
0.00754784
-11.9938
-0.00331485
-9.64182
-0.00951068
-7.75018
-0.0124963
-6.223
-0.0134368
-4.99782
-0.0132361
-4.0088
-0.0125232
-3.21239
-0.0115588
-2.57393
-0.0104028
-2.06205
-0.00910616
-1.65452
-0.007836
-1.32907
-0.00668707
-1.06921
-0.00580173
-0.862426
-0.00519528
-0.699519
-0.00472493
-0.573168
-0.00423645
-0.477067
-0.00369016
-0.405977
-0.00309161
-0.355958
-0.00247216
-0.323994
-0.308641
-0.00188494
3.84418
-1203
3.20976
-995.931
2.68801
-824.568
2.26078
-682.724
1.91111
-565.323
1.62503
-468.159
1.39081
-387.75
1.19875
-321.214
1.04105
-266.178
0.911074
-220.664
0.803815
-183.046
0.714723
-151.979
0.640365
-126.347
0.577912
-105.234
0.524651
-87.8875
0.478925
-73.6825
0.438574
-62.1145
0.402372
-52.7664
0.368658
-45.3048
0.33614
-39.4608
0.3034
-35.0272
0.268824
-31.8435
0.230705
-29.8024
0.186875
-28.8321
0.135345
-28.8151
0.0919863
-23.1016
0.0570166
-18.5408
0.0303767
-14.8968
0.0113396
-11.9745
-0.00136943
-9.6289
-0.00890999
-7.74214
-0.0128062
-6.21865
-0.014362
-4.99579
-0.0144954
-4.00821
-0.0139023
-3.21248
-0.0128976
-2.57446
-0.0116453
-2.06295
-0.0102286
-1.6557
-0.00881131
-1.33038
-0.00752417
-1.07044
-0.0065452
-0.863454
-0.00587363
-0.700309
-0.0053358
-0.573794
-0.00477187
-0.477644
-0.00415343
-0.406589
-0.00349331
-0.356629
-0.00281894
-0.324712
-0.309369
-0.00216972
3.96815
-1202.21
3.31528
-995.278
2.77934
-824.032
2.34145
-682.286
1.98389
-564.965
1.692
-467.867
1.45354
-387.511
1.25838
-321.019
1.09839
-266.018
0.966672
-220.532
0.858057
-182.937
0.767833
-151.888
0.692462
-126.271
0.629025
-105.171
0.574723
-87.8333
0.527851
-73.6356
0.48616
-62.0728
0.448384
-52.7286
0.412768
-45.2692
0.377949
-39.4261
0.342411
-34.9917
0.30442
-31.8057
0.262133
-29.7602
0.213189
-28.7833
0.155413
-28.7573
0.106934
-23.0532
0.067793
-18.5016
0.0377561
-14.8668
0.0160374
-11.9525
0.00126148
-9.61388
-0.00780485
-7.73253
-0.0127565
-6.21319
-0.0150251
-4.993
-0.0155498
-4.00714
-0.0150981
-3.21235
-0.0140867
-2.57496
-0.0127722
-2.06392
-0.0112581
-1.65699
-0.00970459
-1.33181
-0.00829328
-1.07181
-0.00723121
-0.864579
-0.00649551
-0.70116
-0.00588885
-0.574466
-0.00525404
-0.478271
-0.00457347
-0.407261
-0.00386118
-0.357364
-0.00313593
-0.325495
-0.310162
-0.0024237
4.09851
-1201.39
3.42635
-994.606
2.87568
-823.481
2.42683
-681.837
2.06123
-564.6
1.76351
-467.569
1.52087
-387.269
1.3227
-320.821
1.16053
-265.856
1.0272
-220.399
0.917331
-182.827
0.826062
-151.797
0.749742
-126.195
0.685355
-105.106
0.630015
-87.778
0.581964
-73.5874
0.53886
-62.0298
0.499393
-52.6891
0.461708
-45.2315
0.424367
-39.3888
0.385747
-34.9532
0.343989
-31.7641
0.297105
-29.7133
0.242525
-28.7288
0.177884
-28.6926
0.123801
-22.9992
0.0800994
-18.4578
0.046339
-14.833
0.0216643
-11.9275
0.00459116
-9.59652
-0.00619154
-7.72116
-0.0123537
-6.20647
-0.0154376
-4.98934
-0.0164182
-4.00552
-0.0161493
-3.21197
-0.0151847
-2.57541
-0.0138504
-2.06495
-0.0122649
-1.65838
-0.0105955
-1.33337
-0.00908064
-1.07328
-0.00794459
-0.865777
-0.00714001
-0.702049
-0.00645785
-0.575168
-0.0057518
-0.478937
-0.00501302
-0.407982
-0.00425198
-0.358155
-0.00347746
-0.326333
-0.311012
-0.00270256
4.23557
-1200.55
3.54325
-993.914
2.9773
-822.916
2.51717
-681.377
2.14339
-564.226
1.83984
-467.265
1.59308
-387.022
1.392
-320.62
1.22779
-265.692
1.09295
-220.264
0.981956
-182.716
0.889737
-151.705
0.812536
-126.118
0.74724
-105.041
0.690863
-87.7217
0.6416
-73.5381
0.597005
-61.9852
0.555726
-52.6477
0.515796
-45.1916
0.475701
-39.3488
0.433703
-34.9112
0.387806
-31.7183
0.335874
-29.6614
0.275116
-28.6682
0.202963
-28.6204
0.142771
-22.9392
0.0941074
-18.409
0.0562869
-14.7952
0.0283741
-11.8992
0.0087639
-9.5766
-0.00393566
-7.70784
-0.0114703
-6.19834
-0.0154765
-4.9847
-0.0169889
-4.00329
-0.0169707
-3.2113
-0.0161263
-2.57577
-0.0148201
-2.06597
-0.0131875
-1.65982
-0.0114209
-1.33504
-0.00981948
-1.07487
-0.00861374
-0.867065
-0.00773563
-0.703005
-0.00697637
-0.575934
-0.0062045
-0.479674
-0.00541536
-0.40878
-0.0046108
-0.359023
-0.00378968
-0.327246
-0.311934
-0.00295526
4.37963
-1199.67
3.66626
-993.2
3.08443
-822.334
2.6127
-680.905
2.2306
-563.844
1.9212
-466.956
1.67038
-386.771
1.46651
-320.416
1.30038
-265.526
1.16418
-220.128
1.05217
-182.604
0.959101
-151.612
0.881091
-126.04
0.814924
-104.975
0.757515
-87.6644
0.707003
-73.4874
0.660836
-61.9391
0.617616
-52.6045
0.575258
-45.1493
0.532165
-39.3058
0.486479
-34.8656
0.436057
-31.6681
0.378609
-29.604
0.311108
-28.6008
0.230774
-28.5401
0.163952
-22.8725
0.109914
-18.3549
0.0676894
-14.753
0.0362506
-11.8673
0.0138567
-9.55387
-0.000962228
-7.69237
-0.0100328
-6.18862
-0.0150805
-4.97895
-0.0172224
-4.00036
-0.0175457
-3.21026
-0.0169053
-2.57593
-0.0156778
-2.06689
-0.0140253
-1.66124
-0.0121834
-1.33675
-0.0105088
-1.07653
-0.0092317
-0.868413
-0.00827294
-0.704025
-0.00743573
-0.576775
-0.00660429
-0.480498
-0.00577226
-0.40967
-0.00492841
-0.359984
-0.00406012
-0.32825
-0.312947
-0.00316494
4.53104
-1198.77
3.79564
-992.465
3.19733
-821.736
2.71364
-680.421
2.32306
-563.453
2.00779
-466.641
1.75298
-386.516
1.54643
-320.209
1.37851
-265.358
1.24108
-219.99
1.12818
-182.491
1.03436
-151.518
0.955611
-125.961
0.888612
-104.908
0.830171
-87.606
0.778373
-73.4355
0.730548
-61.8914
0.685252
-52.5591
0.640275
-45.1044
0.593932
-39.2596
0.544237
-34.816
0.488892
-31.613
0.425445
-29.5406
0.350622
-28.5262
0.261419
-28.4509
0.187436
-22.7986
0.127602
-18.2949
0.0806255
-14.706
0.0453697
-11.8316
0.0199412
-9.52809
0.00279488
-7.67455
-0.00798124
-6.17715
-0.0141999
-4.97196
-0.0170859
-3.99663
-0.0178535
-3.20876
-0.0174986
-2.5758
-0.0163976
-2.06763
-0.0147609
-1.66258
-0.0128797
-1.33843
-0.0111558
-1.07819
-0.00981415
-0.869785
-0.00877585