/*--------------------------------*- C++ -*----------------------------------*\
  =========                 |
  \\      /  F ield         | OpenFOAM: The Open Source CFD Toolbox
   \\    /   O peration     | Website:  https://openfoam.org
    \\  /    A nd           | Version:  10
     \\/     M anipulation  |
\*---------------------------------------------------------------------------*/
FoamFile
{
    format      ascii;
    class       volVectorField;
    location    "10";
    object      U;
}
// * * * * * * * * * * * * * * * * * * * * * * * * * * * * * * * * * * * * * //

dimensions      [0 1 -1 0 0 0 0];

internalField   nonuniform List<vector> 
38016
(
(51.3171 9.01327 -9.51649e-26)
(51.3077 9.01795 -3.90706e-25)
(51.3014 9.01532 4.7168e-25)
(51.3181 9.01753 0)
(51.3019 9.01515 0)
(51.3135 9.0164 0)
(51.3091 9.01561 2.34962e-25)
(51.3107 9.01429 1.55616e-21)
(51.3191 9.01512 2.73179e-25)
(51.3059 9.00889 -3.29407e-25)
(51.3305 9.01259 -3.97978e-21)
(51.32 9.00221 1.9701e-24)
(51.3241 8.99881 -7.56866e-21)
(51.3518 8.99214 -1.43176e-20)
(51.3303 8.97448 1.16977e-20)
(51.3779 8.96421 0)
(51.3731 8.93743 0)
(51.4182 8.90972 0)
(51.4501 8.87035 -3.17672e-23)
(51.5041 8.81667 3.64609e-23)
(51.5724 8.74795 -1.23896e-20)
(51.659 8.65424 1.4562e-20)
(51.77 8.52959 -1.62027e-20)
(51.9111 8.37092 6.65242e-23)
(52.1057 8.1779 -1.73256e-20)
(52.3359 7.98069 1.63001e-25)
(52.5669 7.83733 -6.91946e-21)
(52.7876 7.77246 6.77649e-23)
(52.9656 7.78302 8.71712e-26)
(53.1263 7.85429 0)
(53.2681 7.97212 8.07928e-26)
(53.3886 8.10378 1.17257e-22)
(53.4935 8.26536 -5.06542e-21)
(53.5692 8.45032 0)
(53.6044 8.58934 0)
(53.6047 8.74302 0)
(53.7514 8.81777 0)
(54.0441 8.96755 -1.10316e-21)
(54.1124 9.02885 -7.11712e-22)
(54.2272 9.0927 -1.34762e-23)
(54.0793 9.07139 3.36047e-23)
(53.878 9.02662 1.95275e-21)
(54.2475 9.02856 -4.12669e-22)
(54.3462 8.97683 5.03076e-22)
(54.3504 8.90468 0)
(54.4019 8.68638 0)
(54.3397 8.72245 -3.13414e-21)
(54.355 8.56886 2.852e-21)
(51.3157 9.01311 4.17816e-21)
(51.3057 9.01839 -1.44196e-24)
(51.2939 9.01438 -2.66801e-20)
(51.3217 9.01923 0)
(51.2929 9.014 0)
(51.3183 9.01799 9.90921e-21)
(51.3048 9.0151 -1.26846e-26)
(51.3132 9.01516 -1.55666e-21)
(51.3203 9.01534 -8.44318e-22)
(51.3043 9.00881 -5.70049e-25)
(51.3361 9.01283 -3.79489e-21)
(51.3175 9.00163 -2.53695e-24)
(51.3245 8.99743 7.56464e-21)
(51.3539 8.99111 1.431e-20)
(51.3247 8.97115 -1.16664e-20)
(51.3782 8.96118 3.98161e-20)
(51.3661 8.93136 2.99986e-20)
(51.4084 8.90216 -4.7468e-23)
(51.4382 8.85921 -8.82033e-24)
(51.4857 8.80249 7.34463e-23)
(51.5557 8.72969 3.73058e-20)
(51.6421 8.63187 -4.39345e-20)
(51.7579 8.50124 1.62389e-20)
(51.8991 8.33399 3.4531e-20)
(52.0974 8.13156 -1.78218e-20)
(52.3255 7.92135 -4.32727e-23)
(52.5412 7.76816 6.84917e-21)
(52.7444 7.69741 1.82059e-20)
(52.931 7.70736 -1.1957e-20)
(53.105 7.78124 0)
(53.2544 7.9027 0)
(53.3595 8.0397 7.49825e-21)
(53.4911 8.20856 4.91358e-21)
(53.6379 8.39511 -6.75919e-21)
(53.6392 8.52577 0)
(53.6648 8.6613 5.71835e-21)
(53.6332 8.73218 0)
(54.1002 8.9079 1.09608e-21)
(54.1956 8.96365 -1.43261e-21)
(54.5091 9.03534 1.77315e-21)
(54.2341 8.98011 -2.30082e-21)
(53.7599 8.86866 -6.02066e-22)
(54.2166 8.88847 -4.48243e-22)
(54.3775 8.85071 5.44839e-22)
(54.4081 8.75606 0)
(54.3938 8.50808 0)
(54.2898 8.53568 -2.44594e-21)
(54.2949 8.41867 2.97195e-21)
(51.3135 9.01278 -2.00248e-22)
(51.3112 9.02032 0)
(51.3116 9.0181 5.25733e-20)
(51.3112 9.01844 0)
(51.3116 9.01794 0)
(51.312 9.01773 -9.91263e-21)
(51.3123 9.01667 9.50483e-26)
(51.3135 9.01586 -1.16725e-25)
(51.3141 9.01402 8.44616e-22)
(51.3179 9.0118 -5.7772e-25)
(51.3183 9.00851 7.78086e-21)
(51.3266 9.00336 1.57979e-20)
(51.3321 8.99729 -3.05861e-20)
(51.3417 8.98744 -2.883e-23)
(51.3573 8.97502 2.03926e-23)
(51.3717 8.95686 -3.98089e-20)
(51.3978 8.93254 -3.01065e-20)
(51.4271 8.89974 8.37403e-24)
(51.4673 8.8554 -5.5887e-23)
(51.5187 8.79743 0)
(51.5822 8.7187 -7.57047e-20)
(51.6632 8.61554 2.95436e-20)
(51.7696 8.47585 -3.33055e-20)
(51.8998 8.29702 -6.95389e-20)
(52.0814 8.08025 -4.90282e-22)
(52.3105 7.85689 0)
(52.5452 7.6985 2.85435e-20)
(52.758 7.62495 -1.82005e-20)
(52.9505 7.63346 1.19572e-20)
(53.1154 7.70697 0)
(53.2592 7.83149 3.71083e-22)
(53.3743 7.97798 7.02194e-21)
(53.4802 8.14193 1.29104e-21)
(53.5562 8.30386 5.05266e-21)
(53.6345 8.44279 -7.88972e-21)
(53.7142 8.56878 -5.75567e-21)
(53.808 8.69508 0)
(53.9667 8.80687 -4.69913e-21)
(54.0358 8.84565 1.46848e-21)
(54.1256 8.8544 -1.81876e-21)
(54.154 8.84367 4.61728e-21)
(54.2705 8.82433 -2.85192e-21)
(54.2944 8.78898 4.42662e-21)
(54.3368 8.70991 -9.88846e-22)
(54.3474 8.60384 8.53738e-23)
(54.3721 8.36232 -7.3742e-21)
(54.2937 8.39897 3.63062e-23)
(54.2541 8.30498 -6.55213e-21)
(51.3133 9.01263 -1.15772e-20)
(51.3097 9.02031 0)
(51.31 9.01805 -2.58353e-20)
(51.3101 9.01839 -3.78175e-24)
(51.3101 9.01788 -3.54471e-20)
(51.3108 9.01765 5.09321e-25)
(51.3114 9.01656 8.71568e-21)
(51.3125 9.01571 0)
(51.3141 9.01381 -2.03742e-21)
(51.3163 9.0115 0)
(51.3197 9.00805 1.58214e-20)
(51.3253 9.00268 -1.58069e-20)
(51.3318 8.99628 3.05974e-20)
(51.3425 8.98593 1.18818e-23)
(51.3546 8.97283 4.80182e-20)
(51.3722 8.95365 8.04922e-20)
(51.3956 8.92798 -6.77284e-23)
(51.4257 8.89332 7.9726e-23)
(51.4662 8.84652 0)
(51.5163 8.78536 -8.18562e-20)
(51.5805 8.70236 1.01699e-19)
(51.6602 8.59363 -6.02821e-20)
(51.7664 8.44642 1.00492e-19)
(51.8969 8.25771 3.51738e-20)
(52.0778 8.02828 3.53852e-20)
(52.3085 7.79168 1.78964e-22)
(52.5415 7.62316 2.71068e-22)
(52.755 7.54367 -3.81383e-20)
(52.9492 7.55032 2.53484e-20)
(53.1156 7.62525 0)
(53.2605 7.75332 0)
(53.3693 7.90342 3.98777e-22)
(53.4841 8.06997 -1.07164e-20)
(53.5902 8.23294 0)
(53.6728 8.37251 8.98e-21)
(53.7826 8.49917 0)
(53.8077 8.62038 0)
(53.9835 8.72446 4.69796e-21)
(54.0524 8.75407 -3.10509e-21)
(54.1576 8.75887 -3.76388e-21)
(54.1906 8.74633 4.76746e-21)
(54.2229 8.71729 3.01032e-21)
(54.2689 8.66716 7.38897e-21)
(54.3007 8.58105 -8.84427e-21)
(54.3038 8.48293 0)
(54.31 8.25356 -6.08964e-23)
(54.2198 8.30337 -1.51534e-20)
(54.1707 8.23035 1.50636e-20)
(51.3133 9.01247 7.59988e-21)
(51.3097 9.02028 5.42078e-24)
(51.31 9.01799 -5.06085e-20)
(51.3102 9.01833 3.04289e-20)
(51.3101 9.01781 3.54596e-20)
(51.3109 9.01757 1.89547e-20)
(51.3114 9.01645 8.3532e-21)
(51.3125 9.01556 0)
(51.3142 9.01359 2.03824e-21)
(51.3162 9.01118 -1.10877e-25)
(51.3197 9.00758 -1.58219e-20)
(51.3252 9.00197 -3.22762e-24)
(51.3317 8.99522 0)
(51.3424 8.98435 1.72549e-23)
(51.3543 8.97053 -4.80571e-20)
(51.3718 8.9503 -8.05232e-20)
(51.3951 8.92321 -6.14185e-20)
(51.4249 8.88661 9.06027e-20)
(51.4652 8.83725 0)
(51.5148 8.77276 1.64372e-19)
(51.5786 8.68533 -5.10798e-20)
(51.6577 8.57082 6.04266e-20)
(51.7631 8.41583 -1.35396e-19)
(51.893 8.21695 -1.4071e-22)
(52.0736 7.97442 1.40661e-22)
(52.3045 7.72419 1.81973e-22)
(52.5384 7.5451 -5.90796e-20)
(52.7537 7.45933 3.84449e-20)
(52.9501 7.46388 5.20008e-22)
(53.1194 7.54019 0)
(53.2673 7.67177 -7.7964e-22)
(53.3792 7.82557 -1.49598e-20)
(53.4959 7.99509 1.07185e-20)
(53.6037 8.15935 0)
(53.6826 8.30043 0)
(53.801 8.42746 -1.24373e-20)
(53.8283 8.54237 3.95796e-21)
(53.9998 8.6397 -4.92185e-21)
(54.0645 8.66403 -1.47907e-22)
(54.1543 8.66706 7.94641e-21)
(54.1975 8.65241 -5.04963e-21)
(54.214 8.61592 -6.1357e-21)
(54.2476 8.55713 -1.53335e-20)
(54.2581 8.47075 2.07226e-20)
(54.2443 8.38434 2.23219e-20)
(54.2386 8.17556 -2.55422e-20)
(54.1415 8.2483 -1.8525e-21)
(54.0874 8.19355 -2.01549e-21)
(51.3132 9.01231 0)
(51.3097 9.02026 0)
(51.31 9.01792 5.06169e-20)
(51.3102 9.01827 -3.0436e-20)
(51.3101 9.01773 0)
(51.3109 9.01748 -1.89615e-20)
(51.3114 9.01633 -1.7079e-20)
(51.3125 9.0154 4.15633e-25)
(51.3141 9.01337 0)
(51.3162 9.01085 0)
(51.3196 9.00709 -3.2494e-20)
(51.3251 9.00123 0)
(51.3316 8.99413 0)
(51.3422 8.98272 -5.88395e-20)
(51.354 8.96814 -9.73457e-20)
(51.3715 8.94681 8.13897e-20)
(51.3945 8.91824 6.1373e-20)
(51.4242 8.87963 -1.81635e-19)
(51.4641 8.82759 -1.14001e-22)
(51.5133 8.75965 -8.23427e-20)
(51.5766 8.66763 1.03696e-19)
(51.6549 8.54717 0)
(51.7596 8.3842 6.80256e-20)
(51.8887 8.17489 0)
(52.0687 7.91899 0)
(52.2997 7.65483 -1.85039e-22)
(52.5344 7.4649 8.99619e-20)
(52.7518 7.37258 -3.95932e-20)
(52.9506 7.37478 -2.58827e-20)
(53.1228 7.45242 0)
(53.274 7.58741 -2.38428e-20)
(53.3886 7.74498 -9.97528e-22)
(53.508 7.9176 -2.40052e-20)
(53.6191 8.08324 -1.12876e-20)
(53.6957 8.22616 -4.84494e-21)
(53.824 8.35344 2.828e-20)
(53.8512 8.46221 -4.07662e-21)
(54.0165 8.55334 5.0712e-21)
(54.0799 8.57516 6.55604e-21)
(54.1552 8.57695 -1.22021e-20)
(54.2009 8.5605 1.52288e-20)
(54.2071 8.52024 1.27384e-20)
(54.2224 8.45842 -1.96201e-20)
(54.2147 8.37658 -2.35472e-21)
(54.185 8.30323 2.31589e-20)
(54.1732 8.11767 -2.48349e-20)
(54.0762 8.21653 1.85883e-21)
(54.018 8.17788 2.02192e-21)
(51.3132 9.01214 9.7033e-25)
(51.3097 9.02024 0)
(51.31 9.01785 -4.95666e-20)
(51.3102 9.01821 7.3262e-24)
(51.3101 9.01765 -3.94978e-24)
(51.3109 9.01738 6.70048e-24)
(51.3114 9.01621 1.6353e-20)
(51.3125 9.01523 -7.55231e-21)
(51.3141 9.01313 0)
(51.3161 9.0105 -2.35413e-20)
(51.3196 9.00658 3.25059e-20)
(51.325 9.00046 5.3514e-24)
(51.3314 8.99299 -6.43726e-24)
(51.342 8.98101 5.88613e-20)
(51.3537 8.96566 9.73527e-20)
(51.371 8.94318 -8.13392e-20)
(51.3939 8.91308 -5.46199e-23)
(51.4233 8.87236 9.11123e-20)
(51.4629 8.81756 1.14747e-22)
(51.5117 8.74604 0)
(51.5744 8.6493 -1.04137e-19)
(51.6519 8.52271 -1.23932e-19)
(51.7557 8.35158 0)
(51.8839 8.13166 0)
(52.0632 7.86218 2.95157e-22)
(52.2943 7.58391 -3.67985e-22)
(52.5299 7.3829 -6.01804e-20)
(52.7495 7.28379 3.96041e-20)
(52.9511 7.28339 4.37538e-22)
(53.1266 7.36221 -1.14478e-21)
(53.2817 7.50045 2.62096e-20)
(53.3995 7.6618 -3.41611e-20)
(53.5221 7.83756 2.11828e-20)
(53.6364 8.0047 3.03435e-20)
(53.7111 8.14952 0)
(53.848 8.27694 -1.27529e-20)
(53.8765 8.38003 -4.19375e-21)
(54.035 8.46551 1.58795e-20)
(54.0982 8.48669 -1.33211e-20)
(54.1608 8.48757 8.51032e-21)
(54.2018 8.46982 0)
(54.2005 8.42882 3.2358e-21)
(54.1986 8.36876 -1.25718e-22)
(54.1766 8.29472 -2.00361e-20)
(54.1323 8.23441 5.05204e-20)
(54.1126 8.06996 5.69246e-22)
(54.0242 8.19333 -3.08816e-20)
(53.9696 8.1682 4.26509e-21)
(51.3131 9.01197 -1.23377e-20)
(51.3098 9.02022 9.25743e-20)
(51.31 9.01778 -4.84949e-20)
(51.3102 9.01814 -5.88931e-20)
(51.3101 9.01757 -3.53638e-25)
(51.3109 9.01729 -4.70612e-24)
(51.3114 9.01608 -3.23575e-20)
(51.3124 9.01506 7.555e-21)
(51.3141 9.01289 -3.43774e-25)
(51.3161 9.01015 2.35505e-20)
(51.3195 9.00605 0)
(51.3249 8.99967 -6.6827e-20)
(51.3313 8.99181 -1.01742e-23)
(51.3418 8.97924 1.22148e-23)
(51.3534 8.96308 2.93375e-23)
(51.3706 8.93941 1.64551e-19)
(51.3932 8.90771 6.94275e-23)
(51.4223 8.86483 -8.17259e-23)
(51.4615 8.80716 0)
(51.5098 8.73196 0)
(51.5719 8.63034 0)
(51.6485 8.4975 1.24458e-19)
(51.7513 8.31805 1.00251e-23)
(51.8786 8.0874 -7.49745e-20)
(52.0571 7.80418 0)
(52.2882 7.51168 0)
(52.5248 7.29939 0)
(52.7468 7.19326 4.11034e-20)
(52.9515 7.18999 -5.49968e-20)
(53.1308 7.26982 3.86479e-20)
(53.2903 7.4111 2.25657e-20)
(53.4117 7.5762 3.86035e-20)
(53.5381 7.75513 2.08452e-20)
(53.6556 7.92392 -1.5357e-20)
(53.7291 8.0706 0)
(53.8731 8.19809 0)
(53.9036 8.29611 -8.6417e-21)
(54.0545 8.37649 -1.04302e-20)
(54.1172 8.3982 6.76489e-21)
(54.1697 8.3989 -8.52112e-21)
(54.2019 8.38053 2.19655e-20)
(54.1922 8.34072 -5.44012e-20)
(54.1757 8.28588 3.7492e-20)
(54.1434 8.22163 0)
(54.0894 8.17406 -4.93824e-20)
(54.0608 8.02802 5.6594e-20)
(53.9824 8.17171 4.06799e-21)
(53.9424 8.15753 -4.27669e-21)
(51.3131 9.01179 2.39722e-20)
(51.3098 9.02019 -9.26219e-20)
(51.31 9.01771 9.81096e-20)
(51.3102 9.01808 5.89183e-20)
(51.3101 9.01749 0)
(51.3109 9.01719 -1.86049e-24)
(51.3114 9.01595 -1.52719e-20)
(51.3124 9.01488 0)
(51.3141 9.01263 -1.19863e-20)
(51.316 9.00978 0)
(51.3195 9.0055 1.40414e-24)
(51.3248 8.99884 6.68503e-20)
(51.3311 8.99058 0)
(51.3415 8.9774 0)
(51.353 8.9604 2.95107e-23)
(51.37 8.9355 -1.64729e-19)
(51.3924 8.90216 5.52582e-23)
(51.4212 8.85703 -1.85833e-19)
(51.46 8.79641 0)
(51.5077 8.71741 0)
(51.5692 8.61081 0)
(51.6448 8.47159 -2.52749e-22)
(51.7465 8.28371 2.69909e-22)
(51.8728 8.04222 7.47111e-20)
(52.0503 7.74517 0)
(52.2815 7.4384 0)
(52.519 7.21469 6.29233e-20)
(52.7438 7.10133 -8.23648e-20)
(52.9519 7.09491 -1.10458e-21)
(53.1354 7.17556 -3.74315e-20)
(53.2998 7.31965 -2.57692e-20)
(53.4251 7.48848 3.58342e-20)
(53.5559 7.67059 -2.36755e-20)
(53.6767 7.8412 0)
(53.7499 7.98965 0)
(53.8992 8.11717 3.43583e-20)
(53.9325 8.21083 -9.05835e-21)
(54.0748 8.28669 -1.09653e-20)
(54.1364 8.30963 1.43002e-20)
(54.1813 8.31104 9.02758e-21)
(54.2027 8.2931 -2.2618e-20)
(54.1823 8.25556 2.78106e-20)
(54.1535 8.2076 0)
(54.1137 8.1539 0)
(54.0539 8.11875 -9.51281e-21)
(54.0185 7.98884 0)
(53.9469 8.14732 -8.25139e-21)
(53.9214 8.13913 0)
(51.313 9.0116 -1.16206e-20)
(51.3098 9.02017 0)
(51.31 9.01764 9.60476e-20)
(51.3102 9.01801 5.75815e-20)
(51.3101 9.01741 6.62247e-20)
(51.3109 9.01709 3.65066e-24)
(51.3114 9.01581 6.18435e-20)
(51.3124 9.01469 1.24674e-24)
(51.3141 9.01237 1.19901e-20)
(51.316 9.00939 1.06206e-24)
(51.3194 9.00493 6.84416e-20)
(51.3247 8.99798 0)
(51.3309 8.98931 0)
(51.3412 8.9755 0)
(51.3526 8.95763 -9.99604e-20)
(51.3694 8.93146 1.66454e-19)
(51.3915 8.89643 -1.26662e-19)
(51.42 8.84898 1.86e-19)
(51.4584 8.78532 -1.17008e-22)
(51.5054 8.70245 0)
(51.5661 8.59075 2.18094e-22)
(51.6408 8.44505 -2.39807e-22)
(51.7413 8.24866 0)
(51.8663 7.99628 -1.53251e-19)
(52.0428 7.68539 3.09064e-22)
(52.274 7.36438 -3.8534e-22)
(52.5125 7.12915 -6.34504e-20)
(52.7402 7.00837 -7.84159e-22)
(52.9521 6.99852 5.51968e-20)
(53.1404 7.07978 4.02082e-20)
(53.3103 7.22642 1.74743e-21)
(53.4398 7.39894 -3.80209e-20)
(53.5756 7.58423 0)
(53.6996 7.75682 0)
(53.7737 7.90697 -2.16385e-20)
(53.9263 8.03449 -2.74475e-20)
(53.9633 8.12456 1.77013e-20)
(54.0965 8.19657 1.15554e-20)
(54.1559 8.22103 3.72507e-22)
(54.1945 8.22385 -1.832e-20)
(54.2048 8.20748 2.32655e-20)
(54.1719 8.17309 4.45115e-22)
(54.1326 8.13265 -2.63811e-20)
(54.0875 8.08943 -5.50552e-21)
(54.0245 8.06597 6.41362e-21)
(53.9865 7.95043 -6.08866e-20)
(53.9222 8.11949 1.39656e-19)
(53.9105 8.1138 -7.18547e-20)
(51.3129 9.01141 1.08441e-23)
(51.3098 9.02015 1.8164e-19)
(51.3101 9.01756 -1.91105e-19)
(51.3102 9.01794 -5.76107e-20)
(51.3101 9.01732 -6.62545e-20)
(51.3109 9.01698 -4.51727e-24)
(51.3114 9.01567 -3.05714e-20)
(51.3124 9.0145 -1.37177e-24)
(51.314 9.0121 -9.093e-25)
(51.3159 9.009 1.09686e-24)
(51.3193 9.00435 8.43608e-22)
(51.3245 8.99709 1.08117e-25)
(51.3307 8.988 0)
(51.3409 8.97353 -1.21188e-19)
(51.3521 8.95478 9.99761e-20)
(51.3688 8.9273 -1.66468e-19)
(51.3906 8.89053 1.26652e-19)
(51.4186 8.84071 1.88181e-19)
(51.4565 8.77394 1.37467e-22)
(51.5029 8.6871 2.0522e-23)
(51.5628 8.57022 1.92492e-23)
(51.6363 8.41797 1.28608e-19)
(51.7355 8.21301 2.75636e-22)
(51.8592 7.94977 1.53297e-19)
(52.0346 7.62508 0)
(52.2656 7.28995 -4.02759e-22)
(52.5053 7.04317 5.02137e-22)
(52.7362 6.9148 -4.49935e-20)
(52.9522 6.90123 8.75716e-22)
(53.1457 6.98287 8.16627e-22)
(53.3216 7.13178 5.49426e-20)
(53.4559 7.3079 -3.98484e-20)
(53.5974 7.49637 3.0257e-21)
(53.7247 7.67109 -3.79527e-20)
(53.8008 7.8229 2.69953e-20)
(53.9548 7.95037 0)
(53.9961 8.03764 0)
(54.12 8.1065 1.21357e-20)
(54.1762 8.13252 -1.47246e-20)
(54.2077 8.13713 8.76998e-23)
(54.2075 8.12348 -5.94274e-20)
(54.1627 8.09344 2.94135e-20)
(54.1142 8.06078 -9.04176e-21)
(54.0647 8.02722 5.51551e-21)
(54 8.01404 5.38127e-20)
(53.9633 7.91092 -6.15351e-20)
(53.9088 8.08753 0)
(53.9115 8.08231 -7.4487e-20)
(51.3129 9.01121 1.90433e-20)
(51.3098 9.02012 1.79237e-19)
(51.3101 9.01748 9.50568e-20)
(51.3102 9.01787 -1.12577e-19)
(51.3101 9.01723 8.12192e-24)
(51.3108 9.01687 6.80396e-20)
(51.3114 9.01553 0)
(51.3123 9.0143 -1.00202e-20)
(51.314 9.01182 1.43044e-20)
(51.3159 9.00859 2.6812e-20)
(51.3192 9.00374 -1.3952e-19)
(51.3244 8.99618 -8.74602e-25)
(51.3305 8.98666 0)
(51.3406 8.97151 2.43168e-19)
(51.3516 8.95185 2.02535e-19)
(51.368 8.92303 1.6829e-19)
(51.3895 8.88447 -5.62231e-23)
(51.4172 8.83223 -1.88246e-19)
(51.4545 8.76228 0)
(51.5001 8.67141 1.79769e-22)
(51.5591 8.54928 -2.02476e-22)
(51.6314 8.39043 -1.28886e-19)
(51.7292 8.17691 -2.78538e-22)
(51.8514 7.90286 3.09709e-22)
(52.0255 7.56453 -8.12679e-20)
(52.2565 7.21547 -1.02912e-19)
(52.4972 6.95717 6.58975e-20)
(52.7316 6.82108 1.75649e-19)
(52.9521 6.8035 1.94123e-21)
(53.1514 6.88527 -3.96353e-20)
(53.334 7.03612 -5.82759e-20)
(53.4735 7.21574 -7.92428e-22)
(53.6213 7.40734 5.17222e-20)
(53.7519 7.5843 3.36683e-20)
(53.8314 7.73776 -1.14616e-20)
(53.985 7.86513 5.85567e-20)
(54.031 7.95038 1.95421e-20)
(54.1456 8.01674 -2.31769e-20)
(54.1974 8.04428 1.50792e-20)
(54.2211 8.05112 2.90107e-20)
(54.2113 8.04153 -8.5392e-20)
(54.157 8.01728 6.04042e-20)
(54.1005 7.99241 -7.59286e-20)
(54.0455 7.96737 1.89605e-19)
(53.9787 7.96273 -1.08945e-19)
(53.9434 7.86971 0)
(53.8967 8.05062 -1.51865e-19)
(53.9069 8.04306 1.55041e-19)
(51.3128 9.011 -1.90164e-20)
(51.3098 9.0201 -5.40421e-19)
(51.3101 9.0174 9.30443e-20)
(51.3102 9.0178 2.23871e-19)
(51.3101 9.01713 0)
(51.3108 9.01676 -6.80662e-20)
(51.3114 9.01538 0)
(51.3123 9.0141 1.00242e-20)
(51.314 9.01153 -1.43081e-20)
(51.3158 9.00817 -2.68247e-20)
(51.3191 9.00312 1.4127e-19)
(51.3242 8.99524 7.0437e-20)
(51.3302 8.98527 -1.33437e-19)
(51.3402 8.96944 -1.21962e-19)
(51.3511 8.94884 -2.02579e-19)
(51.3672 8.91865 -1.68339e-19)
(51.3883 8.87829 0)
(51.4155 8.82357 0)
(51.4522 8.7504 -1.39447e-22)
(51.4971 8.65544 -1.751e-19)
(51.5551 8.52801 2.20549e-19)
(51.6261 8.36254 0)
(51.7223 8.14049 0)
(51.843 7.85577 0)
(52.0157 7.50402 1.6248e-19)
(52.2464 7.14133 2.09994e-19)
(52.4884 6.87161 -6.69422e-20)
(52.7264 6.72769 -8.86682e-20)
(52.9519 6.70582 0)
(53.1575 6.78742 0)
(53.3474 6.93987 -3.72285e-21)
(53.4927 7.12281 4.28754e-20)
(53.6476 7.3175 -5.17247e-20)
(53.7815 7.49674 8.95723e-21)
(53.8655 7.65191 -3.43381e-20)
(54.0175 7.77913 -2.94244e-20)
(54.0679 7.86308 4.21067e-22)
(54.1736 7.92755 -2.42861e-20)
(54.2201 7.95675 0)
(54.2359 7.96666 7.96323e-20)
(54.2184 7.96262 -6.215e-20)
(54.1568 7.94504 0)
(54.0931 7.92736 0)
(54.033 7.90988 -5.81571e-21)
(53.967 7.91299 0)
(53.9368 7.82915 -8.20071e-21)
(53.9005 8.01368 8.96936e-21)
(53.9189 8.00428 -4.7785e-21)
(51.3127 9.01079 1.62537e-20)
(51.3099 9.02008 1.23208e-21)
(51.3101 9.01732 9.09902e-20)
(51.3102 9.01772 -2.21301e-19)
(51.3101 9.01704 6.31756e-20)
(51.3108 9.01665 8.66049e-24)
(51.3114 9.01522 0)
(51.3123 9.01389 6.49395e-25)
(51.3139 9.01123 -7.8372e-25)
(51.3157 9.00773 0)
(51.319 9.00248 8.49106e-22)
(51.324 8.99427 -7.0465e-20)
(51.33 8.98385 1.33489e-19)
(51.3398 8.96732 -2.46693e-19)
(51.3504 8.94578 0)
(51.3663 8.91419 0)
(51.387 8.87198 0)
(51.4137 8.81476 0)
(51.4497 8.73832 1.40445e-22)
(51.4937 8.63924 1.7515e-19)
(51.5507 8.50648 -4.43031e-19)
(51.6202 8.33441 -2.66332e-22)
(51.7148 8.1039 2.84406e-22)
(51.8338 7.80872 -1.61259e-19)
(52.005 7.44386 -8.21702e-20)
(52.2355 7.06794 -2.12591e-19)
(52.4786 6.78696 1.11268e-21)
(52.7207 6.63516 -1.3875e-21)
(52.9515 6.60871 6.1985e-20)
(53.1641 6.68982 0)
(53.3619 6.84346 0)
(53.5135 7.02951 -4.49671e-20)
(53.6762 7.2272 6.44092e-21)
(53.8137 7.40872 -9.14657e-21)
(53.903 7.56569 8.18392e-20)
(54.0526 7.69272 -3.07198e-20)
(54.1068 7.77599 -1.94351e-20)
(54.2043 7.83929 2.54683e-20)
(54.2454 7.87071 -8.02765e-20)
(54.2545 7.88498 -4.13255e-20)
(54.2307 7.88753 1.17755e-20)
(54.1629 7.87665 1.44218e-19)
(54.0915 7.86496 -7.86942e-20)
(54.0267 7.85369 1.09339e-19)
(53.9636 7.86299 -1.14331e-19)
(53.9399 7.78654 -1.17071e-19)
(53.9127 7.97336 1.47266e-19)
(53.9362 7.96149 0)
(51.3126 9.01057 -3.1065e-20)
(51.3099 9.02005 3.55167e-19)
(51.3101 9.01723 -1.84075e-19)
(51.3102 9.01765 1.33957e-21)
(51.3101 9.01694 -6.32012e-20)
(51.3108 9.01653 -1.51385e-23)
(51.3114 9.01507 7.97137e-24)
(51.3122 9.01368 -7.01467e-21)
(51.3139 9.01093 4.09635e-24)
(51.3156 9.00729 -4.94128e-24)
(51.3189 9.00182 -7.19682e-20)
(51.3238 8.99328 4.35043e-24)
(51.3297 8.98239 -1.35641e-19)
(51.3393 8.96515 -1.35218e-21)
(51.3498 8.94265 2.06462e-19)
(51.3653 8.90965 4.82198e-23)
(51.3856 8.86559 -5.71955e-23)
(51.4117 8.80583 0)
(51.447 8.72609 1.41446e-22)
(51.4901 8.62287 2.1781e-23)
(51.5459 8.48478 2.22271e-19)
(51.6139 8.30616 0)
(51.7067 8.06733 -1.52072e-19)
(51.8239 7.76194 3.23963e-19)
(51.9934 7.38439 6.4498e-22)
(52.2235 6.99574 1.07174e-19)
(52.4679 6.70375 -7.06139e-20)
(52.7143 6.54402 1.51729e-21)
(52.9508 6.51271 -2.74717e-21)
(53.1711 6.59299 2.57278e-21)
(53.3775 6.74739 3.87496e-21)
(53.5361 6.93624 7.55706e-20)
(53.7073 7.13681 -5.49151e-20)
(53.8486 7.32055 -9.333e-21)
(53.944 7.47943 -3.56004e-20)
(54.0906 7.60625 6.20775e-20)
(54.1478 7.68944 2.02635e-20)
(54.238 7.75245 0)
(54.2746 7.78708 -3.49244e-22)
(54.2786 7.80687 2.0534e-20)
(54.2498 7.81635 0)
(54.1766 7.81194 -1.61901e-20)
(54.0986 7.80599 1.02291e-20)
(54.0308 7.80073 -1.22e-20)
(53.972 7.8152 0)
(53.9535 7.74436 -8.38675e-21)
(53.9319 7.93214 0)
(53.9561 7.91713 0)
(51.3126 9.01035 1.48293e-20)
(51.3099 9.02003 -3.52922e-19)
(51.3101 9.01714 1.80102e-19)
(51.3101 9.01757 -1.06048e-19)
(51.3101 9.01684 0)
(51.3108 9.01641 0)
(51.3114 9.0149 -5.25628e-20)
(51.3122 9.01346 7.0175e-21)
(51.3138 9.01061 0)
(51.3156 9.00683 -5.71521e-24)
(51.3188 9.00114 6.89002e-24)
(51.3236 8.99227 -1.45183e-19)
(51.3294 8.98091 1.35695e-19)
(51.3388 8.96295 2.48212e-19)
(51.349 8.93949 1.23021e-21)
(51.3642 8.90506 0)
(51.384 8.85913 0)
(51.4096 8.79683 1.04448e-22)
(51.4441 8.71377 -1.2163e-22)
(51.4861 8.60641 -3.58643e-19)
(51.5407 8.46302 2.09046e-22)
(51.6071 8.27791 0)
(51.698 8.03094 3.05245e-19)
(51.8131 7.71568 -1.6272e-19)
(51.9808 7.32593 0)
(52.2106 6.92515 0)
(52.4563 6.62248 7.17973e-20)
(52.7072 6.45484 -9.70107e-20)
(52.95 6.4184 -6.32301e-20)
(53.1784 6.49744 0)
(53.3943 6.65212 0)
(53.5605 6.84342 7.80139e-22)
(53.7408 7.04669 6.92924e-20)
(53.8865 7.23256 -1.79567e-20)
(53.9883 7.39348 4.91428e-20)
(54.1318 7.52011 6.15741e-22)
(54.1911 7.60379 -6.186e-20)
(54.275 7.66756 2.53626e-20)
(54.3087 7.70647 -5.11443e-20)
(54.3097 7.73249 1.91359e-19)
(54.277 7.74831 -1.06226e-19)
(54.1996 7.74957 0)
(54.1178 7.74897 -1.02412e-20)
(54.0512 7.7496 0)
(53.9998 7.76841 2.5592e-19)
(53.9872 7.70222 -2.75134e-19)
(53.9703 7.8909 0)
(53.9952 7.87337 0)
(51.3125 9.01012 0)
(51.3099 9.02 1.75911e-19)
(51.3101 9.01705 -2.02893e-21)
(51.3101 9.01749 2.14872e-19)
(51.3101 9.01673 1.21846e-19)
(51.3108 9.01629 -6.25983e-20)
(51.3113 9.01474 5.25844e-20)
(51.3122 9.01323 -1.72341e-24)
(51.3138 9.01029 3.63896e-20)
(51.3155 9.00636 -6.00293e-20)
(51.3186 9.00046 5.26927e-24)
(51.3234 8.99124 1.45223e-19)
(51.329 8.97941 1.08033e-23)
(51.3383 8.96071 2.50977e-19)
(51.3482 8.93629 -2.07817e-19)
(51.3631 8.90043 -3.45786e-19)
(51.3823 8.85263 2.89229e-23)
(51.4072 8.78778 0)
(51.4409 8.70141 0)
(51.4818 8.58993 3.58728e-19)
(51.5351 8.44127 -2.10699e-22)
(51.5998 8.24981 -5.49334e-22)
(51.6886 7.99492 -1.53194e-19)
(51.8016 7.67019 -1.67413e-19)
(51.9674 7.26885 6.88277e-22)
(52.1967 6.85663 -8.5836e-22)
(52.4437 6.5437 -7.31701e-20)
(52.6995 6.36819 9.24567e-20)
(52.9489 6.32636 3.93236e-21)
(53.1863 6.40371 3.90757e-20)
(53.4122 6.55815 6.91764e-20)
(53.5868 6.75147 -5.23136e-20)
(53.777 6.95722 1.36431e-20)
(53.9276 7.14508 1.93906e-20)
(54.036 7.30814 -7.3377e-20)
(54.1762 7.43467 -6.49015e-20)
(54.2372 7.51941 4.08344e-20)
(54.3159 7.58499 1.06416e-19)
(54.3487 7.62913 0)
(54.349 7.66176 -2.14517e-20)
(54.313 7.68318 1.23936e-19)
(54.2317 7.68918 -1.18446e-19)
(54.1471 7.69281 -1.80507e-19)
(54.083 7.69783 2.04131e-19)
(54.0384 7.71914 -1.5112e-20)
(54.0294 7.65618 0)
(54.0148 7.84552 9.83672e-21)
(54.0385 7.82571 3.42922e-19)
(51.3124 9.00988 0)
(51.3099 9.01998 0)
(51.3101 9.01696 -1.78179e-19)
(51.3101 9.0174 -1.04834e-19)
(51.3101 9.01663 -1.21899e-19)
(51.3108 9.01616 1.10696e-21)
(51.3113 9.01456 0)
(51.3121 9.013 0)
(51.3137 9.00996 -3.63979e-20)
(51.3154 9.00589 -1.23931e-21)
(51.3185 8.99976 -1.50903e-19)
(51.3231 8.99019 -1.49204e-23)
(51.3286 8.97788 -1.38948e-19)
(51.3377 8.95846 1.35085e-21)
(51.3474 8.93307 0)
(51.3618 8.89578 -1.74997e-21)
(51.3805 8.84611 2.96211e-23)
(51.4046 8.77873 -4.34216e-23)
(51.4374 8.68907 -1.44462e-22)
(51.4772 8.57351 3.54368e-22)
(51.529 8.41966 -2.12352e-22)
(51.5919 8.22199 2.7636e-19)
(51.6785 7.95945 -1.5738e-19)
(51.7892 7.62572 -2.67735e-21)
(51.9529 7.21347 -8.75466e-20)
(52.1817 6.79062 -1.14175e-19)
(52.4301 6.46792 -3.65741e-21)
(52.691 6.28463 -4.66036e-20)
(52.9475 6.23716 0)
(53.1945 6.31234 -9.07957e-20)
(53.4311 6.46598 -5.36402e-20)
(53.6151 6.66079 -1.02427e-20)
(53.8157 6.86876 5.79797e-20)
(53.972 7.05844 -1.97398e-20)
(54.0872 7.22374 -2.62551e-20)
(54.2241 7.35026 -6.66922e-20)
(54.2865 7.43663 -4.34511e-20)
(54.3616 7.50498 2.68653e-20)
(54.3957 7.55486 7.04032e-20)
(54.3973 7.59397 -1.76683e-19)
(54.3587 7.62027 9.66443e-20)
(54.2738 7.63068 1.22768e-19)
(54.1871 7.63825 -1.38466e-19)
(54.1254 7.64683 -2.09727e-19)
(54.0862 7.66946 2.62307e-19)
(54.0795 7.60912 8.9809e-21)
(54.067 7.79939 -9.84296e-21)
(54.0909 7.77814 -3.47609e-19)
(51.3123 9.00964 9.35624e-21)
(51.31 9.01995 -6.29014e-23)
(51.3101 9.01687 4.63932e-23)
(51.3101 9.01732 3.11903e-19)
(51.3101 9.01652 -1.18862e-19)
(51.3107 9.01603 6.15212e-20)
(51.3113 9.01439 4.27086e-24)
(51.3121 9.01276 5.66396e-24)
(51.3137 9.00963 -2.42067e-24)
(51.3153 9.0054 -1.23202e-21)
(51.3184 8.99904 3.03657e-19)
(51.3229 8.98912 2.38314e-23)
(51.3282 8.97634 4.19056e-19)
(51.3371 8.95619 1.37089e-21)
(51.3464 8.92984 8.72188e-24)
(51.3604 8.89113 6.9715e-19)
(51.3785 8.83962 -2.66996e-19)
(51.4019 8.76972 0)
(51.4336 8.67681 -7.27328e-23)
(51.4721 8.55723 8.3482e-23)
(51.5225 8.39829 -2.31809e-19)
(51.5835 8.19459 2.49756e-21)
(51.6677 7.92473 1.5712e-19)
(51.776 7.58252 1.69523e-19)
(51.9375 7.16014 1.77696e-19)
(52.1656 6.72757 1.70364e-19)
(52.4153 6.39567 1.52582e-19)
(52.6817 6.20475 1.00115e-19)
(52.9458 6.15137 4.45486e-21)
(53.203 6.22386 4.0279e-20)
(53.4512 6.3761 -8.34938e-21)
(53.6453 6.57183 2.17483e-20)
(53.8572 6.78168 -5.69483e-20)
(54.0198 6.97297 -1.89435e-20)
(54.1419 7.14055 5.09237e-20)
(54.2757 7.26719 -5.59422e-22)
(54.3394 7.35566 0)
(54.4129 7.42758 -2.79884e-20)
(54.4501 7.48314 0)
(54.4541 7.52771 -9.06575e-20)
(54.4125 7.55737 -1.6973e-21)
(54.3237 7.57116 2.64838e-19)
(54.2352 7.58194 -1.73137e-19)
(54.1757 7.59332 -2.12831e-19)
(54.1409 7.61677 -1.7716e-20)
(54.136 7.55945 2.79562e-19)
(54.1268 7.75177 0)
(54.1526 7.73021 3.41498e-19)
(51.3122 9.00939 -1.72441e-20)
(51.31 9.01993 0)
(51.3101 9.01677 1.72342e-19)
(51.3101 9.01723 -3.09384e-19)
(51.3101 9.0164 1.18914e-19)
(51.3107 9.0159 -5.93454e-20)
(51.3113 9.01421 -7.13469e-24)
(51.312 9.01252 2.09133e-21)
(51.3136 9.00928 6.73689e-24)
(51.3152 9.00491 6.25505e-20)
(51.3182 8.99832 -1.52727e-19)
(51.3226 8.98805 0)
(51.3278 8.9748 -2.8014e-19)
(51.3364 8.95391 -2.54002e-19)
(51.3454 8.92662 4.25761e-19)
(51.3589 8.88651 -7.00824e-19)
(51.3763 8.83318 -1.46277e-21)
(51.3989 8.76081 -6.69531e-24)
(51.4296 8.66469 4.44119e-23)
(51.4668 8.54116 3.69071e-19)
(51.5156 8.37727 4.65399e-19)
(51.5745 8.16775 -2.78394e-19)
(51.6563 7.89092 1.60091e-19)
(51.7619 7.54083 -1.74242e-19)
(51.9211 7.1092 -8.87926e-20)
(52.1484 6.66788 8.58398e-22)
(52.3995 6.32746 -7.58167e-20)
(52.6715 6.12907 -4.71937e-20)
(52.9436 6.06957 -4.15787e-21)
(53.2118 6.13878 -6.21924e-21)
(53.4723 6.28899 7.75725e-21)
(53.6775 6.48501 0)
(53.9012 6.69637 -7.53179e-20)
(54.0711 6.88898 5.91614e-20)
(54.2002 7.05881 0)
(54.3313 7.18571 3.37278e-20)
(54.3965 7.27664 -4.46905e-20)
(54.4708 7.35269 5.53147e-20)
(54.5126 7.4135 0)
(54.5187 7.46248 -9.20494e-20)
(54.4721 7.49447 1.42933e-19)
(54.3778 7.51092 -2.45517e-22)
(54.2866 7.52408 -2.19548e-20)
(54.2281 7.53737 0)
(54.1968 7.56134 -2.55889e-19)
(54.1946 7.50776 2.92439e-19)
(54.1907 7.70313 -3.26904e-19)
(54.2208 7.68235 3.43444e-19)
(51.3121 9.00914 7.90578e-21)
(51.31 9.0199 0)
(51.3101 9.01667 -3.42862e-19)
(51.3101 9.01714 3.04223e-19)
(51.3101 9.01629 0)
(51.3107 9.01576 1.09475e-21)
(51.3113 9.01402 4.54644e-20)
(51.312 9.01227 -3.20347e-21)
(51.3136 9.00893 4.03133e-24)
(51.315 9.0044 -6.50262e-20)
(51.318 8.99759 -2.95756e-23)
(51.3223 8.98697 -4.84597e-23)
(51.3273 8.97324 5.82856e-23)
(51.3357 8.95164 0)
(51.3443 8.92342 -4.26003e-19)
(51.3573 8.88193 3.51487e-19)
(51.374 8.82682 2.68514e-19)
(51.3957 8.75203 8.83756e-23)
(51.4252 8.65277 2.78519e-19)
(51.461 8.52539 -7.40666e-19)
(51.5082 8.3567 -2.3357e-19)
(51.5649 8.14161 -1.32265e-22)
(51.6441 7.85823 -1.59783e-19)
(51.747 7.5009 1.72946e-19)
(51.9037 7.06095 1.4598e-21)
(52.1301 6.61196 -9.71761e-22)
(52.3826 6.26376 0)
(52.6604 6.05811 0)
(52.941 5.99228 -6.61246e-20)
(53.2208 6.05759 -4.78121e-20)
(53.4943 6.20508 7.44589e-22)
(53.7117 6.40075 9.13468e-22)
(53.948 6.61323 -1.55115e-20)
(54.126 6.80682 6.02396e-22)
(54.2619 6.97869 0)
(54.3911 7.10603 -3.52088e-20)
(54.4586 7.19961 1.34332e-19)
(54.536 7.27993 -2.81704e-20)
(54.5836 7.34515 0)
(54.5911 7.39769 9.33432e-20)
(54.5382 7.432 2.00872e-21)
(54.4371 7.4515 -1.26433e-19)
(54.342 7.46703 2.25344e-20)
(54.2832 7.48184 -1.36695e-20)
(54.2544 7.50621 1.62161e-20)
(54.2559 7.45687 -1.86612e-20)
(54.2593 7.65561 0)
(54.2952 7.63612 -1.09406e-20)
(51.312 9.00888 -1.93774e-23)
(51.31 9.01987 6.11603e-23)
(51.3101 9.01657 1.70475e-19)
(51.3101 9.01705 -2.02025e-19)
(51.3101 9.01617 0)
(51.3107 9.01562 1.72744e-19)
(51.3112 9.01383 -4.54865e-20)
(51.3119 9.01202 9.74316e-22)
(51.3135 9.00858 -1.5636e-23)
(51.3149 9.00389 6.50763e-20)
(51.3178 8.99685 2.57959e-23)
(51.322 8.98588 1.53655e-19)
(51.3269 8.97169 2.8651e-19)
(51.3349 8.94938 -2.58041e-19)
(51.3431 8.92026 4.30742e-19)
(51.3556 8.87742 3.55236e-19)
(51.3716 8.82059 3.21378e-23)
(51.3923 8.74343 -1.77755e-22)
(51.4206 8.64111 -2.78397e-19)
(51.4549 8.51001 -2.74323e-21)
(51.5003 8.33669 5.47149e-23)
(51.5548 8.11631 1.44181e-22)
(51.6312 7.82682 1.63462e-19)
(51.7312 7.46294 0)
(51.8852 7.01569 4.65179e-20)
(52.1107 6.56016 8.35279e-22)