/*--------------------------------*- C++ -*----------------------------------*\
  =========                 |
  \\      /  F ield         | OpenFOAM: The Open Source CFD Toolbox
   \\    /   O peration     | Website:  https://openfoam.org
    \\  /    A nd           | Version:  10
     \\/     M anipulation  |
\*---------------------------------------------------------------------------*/
FoamFile
{
    format      ascii;
    class       volScalarField;
    location    "10";
    object      nut;
}
// * * * * * * * * * * * * * * * * * * * * * * * * * * * * * * * * * * * * * //

dimensions      [0 2 -1 0 0 0 0];

internalField   nonuniform List<scalar> 
38016
(
1.81601e-06
1.816e-06
1.816e-06
1.816e-06
1.816e-06
1.816e-06
1.816e-06
1.81601e-06
1.81601e-06
1.81601e-06
1.81601e-06
1.81601e-06
1.81601e-06
1.81601e-06
1.816e-06
1.81601e-06
1.81605e-06
1.81612e-06
1.81624e-06
1.81642e-06
1.81671e-06
1.81718e-06
1.81795e-06
1.81925e-06
1.82154e-06
1.82521e-06
1.83016e-06
1.83623e-06
1.84313e-06
1.85048e-06
1.85788e-06
1.86499e-06
1.87152e-06
1.87723e-06
1.88191e-06
1.88543e-06
1.88776e-06
1.88887e-06
1.88885e-06
1.88787e-06
1.88616e-06
1.88412e-06
1.88257e-06
1.88211e-06
1.88247e-06
1.8848e-06
1.88866e-06
1.88828e-06
1.81601e-06
1.816e-06
1.816e-06
1.816e-06
1.816e-06
1.816e-06
1.81601e-06
1.81601e-06
1.81601e-06
1.81601e-06
1.81601e-06
1.81601e-06
1.81601e-06
1.81601e-06
1.816e-06
1.81601e-06
1.81606e-06
1.81613e-06
1.81625e-06
1.81644e-06
1.81674e-06
1.81721e-06
1.818e-06
1.8193e-06
1.82163e-06
1.82535e-06
1.83038e-06
1.83654e-06
1.84351e-06
1.8509e-06
1.8583e-06
1.86535e-06
1.87173e-06
1.87721e-06
1.88159e-06
1.88476e-06
1.88669e-06
1.88739e-06
1.88697e-06
1.88563e-06
1.88369e-06
1.88156e-06
1.87986e-06
1.87931e-06
1.87954e-06
1.88171e-06
1.88587e-06
1.88537e-06
1.81601e-06
1.816e-06
1.816e-06
1.816e-06
1.816e-06
1.816e-06
1.81601e-06
1.81601e-06
1.81601e-06
1.81601e-06
1.81601e-06
1.81602e-06
1.81601e-06
1.81601e-06
1.816e-06
1.81601e-06
1.81606e-06
1.81614e-06
1.81626e-06
1.81646e-06
1.81678e-06
1.81728e-06
1.81809e-06
1.81944e-06
1.82183e-06
1.82564e-06
1.83076e-06
1.83698e-06
1.84399e-06
1.85135e-06
1.85864e-06
1.86548e-06
1.87157e-06
1.87668e-06
1.88064e-06
1.88337e-06
1.88485e-06
1.88514e-06
1.88437e-06
1.88275e-06
1.88066e-06
1.87855e-06
1.87689e-06
1.87614e-06
1.87625e-06
1.87831e-06
1.88264e-06
1.8819e-06
1.81601e-06
1.816e-06
1.816e-06
1.816e-06
1.816e-06
1.816e-06
1.81601e-06
1.81601e-06
1.81601e-06
1.81601e-06
1.81602e-06
1.81602e-06
1.81602e-06
1.81601e-06
1.816e-06
1.81602e-06
1.81606e-06
1.81615e-06
1.81628e-06
1.81649e-06
1.81682e-06
1.81734e-06
1.81818e-06
1.81957e-06
1.82202e-06
1.8259e-06
1.83108e-06
1.83735e-06
1.84436e-06
1.85165e-06
1.85878e-06
1.86539e-06
1.87118e-06
1.87591e-06
1.87944e-06
1.88171e-06
1.88274e-06
1.8826e-06
1.88144e-06
1.87953e-06
1.87729e-06
1.87522e-06
1.87379e-06
1.87311e-06
1.8731e-06
1.87521e-06
1.87994e-06
1.87924e-06
1.81601e-06
1.816e-06
1.816e-06
1.816e-06
1.816e-06
1.81601e-06
1.81601e-06
1.81601e-06
1.81601e-06
1.81601e-06
1.81602e-06
1.81602e-06
1.81602e-06
1.81601e-06
1.816e-06
1.81602e-06
1.81607e-06
1.81615e-06
1.81629e-06
1.81651e-06
1.81685e-06
1.81739e-06
1.81827e-06
1.81969e-06
1.82218e-06
1.8261e-06
1.83131e-06
1.83759e-06
1.84454e-06
1.85171e-06
1.85865e-06
1.86497e-06
1.87039e-06
1.8747e-06
1.87777e-06
1.87956e-06
1.88014e-06
1.87958e-06
1.87808e-06
1.87593e-06
1.87364e-06
1.87176e-06
1.87065e-06
1.87021e-06
1.87008e-06
1.87215e-06
1.87742e-06
1.87701e-06
1.81601e-06
1.816e-06
1.816e-06
1.816e-06
1.816e-06
1.81601e-06
1.81601e-06
1.81601e-06
1.81601e-06
1.81601e-06
1.81602e-06
1.81602e-06
1.81602e-06
1.81601e-06
1.816e-06
1.81602e-06
1.81607e-06
1.81616e-06
1.81631e-06
1.81654e-06
1.81689e-06
1.81745e-06
1.81835e-06
1.8198e-06
1.82232e-06
1.82627e-06
1.8315e-06
1.83775e-06
1.84463e-06
1.85165e-06
1.85836e-06
1.86437e-06
1.86943e-06
1.87332e-06
1.87595e-06
1.87732e-06
1.87749e-06
1.87659e-06
1.87483e-06
1.87256e-06
1.87037e-06
1.86877e-06
1.86807e-06
1.8677e-06
1.86746e-06
1.86935e-06
1.87491e-06
1.87491e-06
1.81601e-06
1.81601e-06
1.816e-06
1.816e-06
1.81601e-06
1.81601e-06
1.81601e-06
1.81601e-06
1.81601e-06
1.81602e-06
1.81602e-06
1.81602e-06
1.81602e-06
1.81601e-06
1.816e-06
1.81602e-06
1.81608e-06
1.81617e-06
1.81632e-06
1.81656e-06
1.81693e-06
1.8175e-06
1.81842e-06
1.8199e-06
1.82244e-06
1.82641e-06
1.83163e-06
1.83782e-06
1.84458e-06
1.85142e-06
1.85786e-06
1.86354e-06
1.86821e-06
1.87168e-06
1.87388e-06
1.87484e-06
1.87465e-06
1.87346e-06
1.8715e-06
1.86922e-06
1.86724e-06
1.86606e-06
1.86566e-06
1.86544e-06
1.86509e-06
1.86666e-06
1.8722e-06
1.8728e-06
1.81601e-06
1.81601e-06
1.81601e-06
1.81601e-06
1.81601e-06
1.81601e-06
1.81601e-06
1.81601e-06
1.81601e-06
1.81602e-06
1.81602e-06
1.81602e-06
1.81602e-06
1.81601e-06
1.816e-06
1.81602e-06
1.81608e-06
1.81618e-06
1.81634e-06
1.81658e-06
1.81697e-06
1.81756e-06
1.81849e-06
1.81999e-06
1.82254e-06
1.8265e-06
1.83167e-06
1.83778e-06
1.84439e-06
1.85099e-06
1.85713e-06
1.86246e-06
1.86673e-06
1.86979e-06
1.87157e-06
1.87215e-06
1.87165e-06
1.87022e-06
1.86817e-06
1.866e-06
1.86433e-06
1.86365e-06
1.86353e-06
1.86355e-06
1.86309e-06
1.8641e-06
1.86945e-06
1.87071e-06
1.81601e-06
1.81601e-06
1.81601e-06
1.81601e-06
1.81601e-06
1.81601e-06
1.81601e-06
1.81601e-06
1.81601e-06
1.81602e-06
1.81602e-06
1.81602e-06
1.81602e-06
1.81602e-06
1.816e-06
1.81602e-06
1.81608e-06
1.81619e-06
1.81635e-06
1.81661e-06
1.817e-06
1.8176e-06
1.81855e-06
1.82006e-06
1.82261e-06
1.82654e-06
1.83164e-06
1.83762e-06
1.84404e-06
1.85038e-06
1.85619e-06
1.86113e-06
1.865e-06
1.86765e-06
1.86905e-06
1.86928e-06
1.86852e-06
1.86693e-06
1.86488e-06
1.86294e-06
1.86174e-06
1.86148e-06
1.86179e-06
1.86212e-06
1.86144e-06
1.86169e-06
1.86671e-06
1.86866e-06
1.81602e-06
1.81601e-06
1.81601e-06
1.81601e-06
1.81601e-06
1.81601e-06
1.81601e-06
1.81601e-06
1.81602e-06
1.81602e-06
1.81602e-06
1.81602e-06
1.81602e-06
1.81602e-06
1.816e-06
1.81602e-06
1.81609e-06
1.81619e-06
1.81636e-06
1.81663e-06
1.81703e-06
1.81765e-06
1.81861e-06
1.82012e-06
1.82265e-06
1.82653e-06
1.83153e-06
1.83735e-06
1.84353e-06
1.84957e-06
1.85502e-06
1.85958e-06
1.86303e-06
1.86529e-06
1.86633e-06
1.86628e-06
1.86532e-06
1.86365e-06
1.86171e-06
1.86009e-06
1.85945e-06
1.85966e-06
1.86053e-06
1.86116e-06
1.86011e-06
1.85955e-06
1.86403e-06
1.86668e-06
1.81602e-06
1.81601e-06
1.81601e-06
1.81601e-06
1.81601e-06
1.81601e-06
1.81601e-06
1.81601e-06
1.81602e-06
1.81602e-06
1.81602e-06
1.81603e-06
1.81602e-06
1.81602e-06
1.816e-06
1.81602e-06
1.81609e-06
1.8162e-06
1.81638e-06
1.81665e-06
1.81706e-06
1.81768e-06
1.81865e-06
1.82015e-06
1.82266e-06
1.82646e-06
1.83132e-06
1.83694e-06
1.84286e-06
1.84857e-06
1.85364e-06
1.8578e-06
1.86086e-06
1.86274e-06
1.86346e-06
1.86316e-06
1.86207e-06
1.86042e-06
1.85871e-06
1.85755e-06
1.85743e-06
1.85825e-06
1.85981e-06
1.86067e-06
1.85927e-06
1.85774e-06
1.86144e-06
1.86476e-06
1.81602e-06
1.81601e-06
1.81601e-06
1.81601e-06
1.81601e-06
1.81601e-06
1.81601e-06
1.81601e-06
1.81602e-06
1.81602e-06
1.81602e-06
1.81603e-06
1.81603e-06
1.81602e-06
1.816e-06
1.81602e-06
1.81609e-06
1.81621e-06
1.81639e-06
1.81667e-06
1.81708e-06
1.81771e-06
1.81868e-06
1.82017e-06
1.82263e-06
1.82633e-06
1.83102e-06
1.83641e-06
1.84203e-06
1.84738e-06
1.85206e-06
1.85581e-06
1.85848e-06
1.86003e-06
1.86047e-06
1.85999e-06
1.85885e-06
1.85732e-06
1.85592e-06
1.85533e-06
1.85575e-06
1.85734e-06
1.85962e-06
1.86072e-06
1.85896e-06
1.85634e-06
1.85902e-06
1.86293e-06
1.81602e-06
1.81601e-06
1.81601e-06
1.81601e-06
1.81601e-06
1.81601e-06
1.81601e-06
1.81601e-06
1.81602e-06
1.81602e-06
1.81603e-06
1.81603e-06
1.81603e-06
1.81602e-06
1.816e-06
1.81602e-06
1.81609e-06
1.81621e-06
1.8164e-06
1.81668e-06
1.81711e-06
1.81774e-06
1.81871e-06
1.82017e-06
1.82257e-06
1.82613e-06
1.83063e-06
1.83575e-06
1.84104e-06
1.84601e-06
1.85028e-06
1.85363e-06
1.85595e-06
1.85718e-06
1.85738e-06
1.85679e-06
1.8557e-06
1.85439e-06
1.85343e-06
1.85338e-06
1.8545e-06
1.85698e-06
1.85993e-06
1.86142e-06
1.85926e-06
1.85539e-06
1.8568e-06
1.86124e-06
1.81602e-06
1.81601e-06
1.81601e-06
1.81601e-06
1.81601e-06
1.81601e-06
1.81601e-06
1.81602e-06
1.81602e-06
1.81602e-06
1.81603e-06
1.81603e-06
1.81603e-06
1.81602e-06
1.816e-06
1.81602e-06
1.8161e-06
1.81622e-06
1.81641e-06
1.81669e-06
1.81712e-06
1.81776e-06
1.81871e-06
1.82015e-06
1.82247e-06
1.82588e-06
1.83015e-06
1.83497e-06
1.8399e-06
1.84447e-06
1.84834e-06
1.8513e-06
1.85328e-06
1.85424e-06
1.85426e-06
1.85363e-06
1.85271e-06
1.85168e-06
1.85128e-06
1.85176e-06
1.85375e-06
1.85716e-06
1.86089e-06
1.86282e-06
1.86022e-06
1.85495e-06
1.85486e-06
1.85971e-06
1.81602e-06
1.81601e-06
1.81601e-06
1.81601e-06
1.81601e-06
1.81601e-06
1.81601e-06
1.81602e-06
1.81602e-06
1.81602e-06
1.81603e-06
1.81603e-06
1.81603e-06
1.81602e-06
1.816e-06
1.81602e-06
1.8161e-06
1.81622e-06
1.81641e-06
1.8167e-06
1.81714e-06
1.81777e-06
1.81871e-06
1.82011e-06
1.82233e-06
1.82557e-06
1.82958e-06
1.83407e-06
1.83862e-06
1.84278e-06
1.84624e-06
1.84884e-06
1.85051e-06
1.85125e-06
1.85114e-06
1.85057e-06
1.84989e-06
1.84929e-06
1.84938e-06
1.85055e-06
1.85353e-06
1.8579e-06
1.86257e-06
1.86497e-06
1.86188e-06
1.85507e-06
1.85324e-06
1.85841e-06
1.81602e-06
1.81601e-06
1.81601e-06
1.81601e-06
1.81601e-06
1.81601e-06
1.81601e-06
1.81602e-06
1.81602e-06
1.81603e-06
1.81603e-06
1.81603e-06
1.81603e-06
1.81603e-06
1.81601e-06
1.81602e-06
1.8161e-06
1.81622e-06
1.81642e-06
1.81671e-06
1.81714e-06
1.81777e-06
1.81869e-06
1.82004e-06
1.82215e-06
1.82519e-06
1.82892e-06
1.83306e-06
1.83721e-06
1.84097e-06
1.84403e-06
1.84628e-06
1.84768e-06
1.84824e-06
1.84809e-06
1.84768e-06
1.84732e-06
1.84721e-06
1.84781e-06
1.84983e-06
1.85384e-06
1.8593e-06
1.865e-06
1.8679e-06
1.86426e-06
1.85577e-06
1.85201e-06
1.85739e-06
1.81602e-06
1.81601e-06
1.81601e-06
1.81601e-06
1.81601e-06
1.81601e-06
1.81602e-06
1.81602e-06
1.81602e-06
1.81603e-06
1.81603e-06
1.81604e-06
1.81604e-06
1.81603e-06
1.81601e-06
1.81602e-06
1.8161e-06
1.81622e-06
1.81642e-06
1.81672e-06
1.81714e-06
1.81776e-06
1.81866e-06
1.81995e-06
1.82194e-06
1.82476e-06
1.82818e-06
1.83195e-06
1.8357e-06
1.83905e-06
1.84174e-06
1.84368e-06
1.84485e-06
1.84529e-06
1.84517e-06
1.84498e-06
1.84508e-06
1.8454e-06
1.84665e-06
1.84962e-06
1.8547e-06
1.86141e-06
1.86821e-06
1.87158e-06
1.86728e-06
1.857e-06
1.85122e-06
1.85673e-06
1.81602e-06
1.81601e-06
1.81601e-06
1.81601e-06
1.81601e-06
1.81601e-06
1.81602e-06
1.81602e-06
1.81602e-06
1.81603e-06
1.81603e-06
1.81604e-06
1.81604e-06
1.81603e-06
1.81601e-06
1.81602e-06
1.8161e-06
1.81623e-06
1.81642e-06
1.81672e-06
1.81714e-06
1.81774e-06
1.81861e-06
1.81984e-06
1.8217e-06
1.82428e-06
1.82738e-06
1.83077e-06
1.83411e-06
1.83707e-06
1.83941e-06
1.84107e-06
1.84207e-06
1.84245e-06
1.8424e-06
1.84254e-06
1.84313e-06
1.84392e-06
1.84595e-06
1.84991e-06
1.85619e-06
1.86427e-06
1.87218e-06
1.87589e-06
1.87081e-06
1.85864e-06
1.85095e-06
1.85655e-06
1.81603e-06
1.81601e-06
1.81601e-06
1.81601e-06
1.81601e-06
1.81601e-06
1.81602e-06
1.81602e-06
1.81603e-06
1.81603e-06
1.81604e-06
1.81604e-06
1.81604e-06
1.81603e-06
1.81601e-06
1.81602e-06
1.8161e-06
1.81622e-06
1.81642e-06
1.81671e-06
1.81713e-06
1.81772e-06
1.81855e-06
1.81971e-06
1.82142e-06
1.82376e-06
1.82652e-06
1.82952e-06
1.83247e-06
1.83505e-06
1.83707e-06
1.83851e-06
1.83939e-06
1.83976e-06
1.83984e-06
1.84044e-06
1.84146e-06
1.84284e-06
1.84574e-06
1.85072e-06
1.85835e-06
1.86788e-06
1.87681e-06
1.8808e-06
1.87486e-06
1.8607e-06
1.85123e-06
1.85693e-06
1.81603e-06
1.81601e-06
1.81601e-06
1.81601e-06
1.81601e-06
1.81601e-06
1.81602e-06
1.81602e-06
1.81603e-06
1.81603e-06
1.81604e-06
1.81604e-06
1.81604e-06
1.81603e-06
1.81601e-06
1.81602e-06
1.8161e-06
1.81622e-06
1.81642e-06
1.8167e-06
1.81711e-06
1.81768e-06
1.81847e-06
1.81956e-06
1.82111e-06
1.8232e-06
1.82563e-06
1.82824e-06
1.83081e-06
1.83305e-06
1.8348e-06
1.83607e-06
1.83688e-06
1.83725e-06
1.83755e-06
1.83856e-06
1.84013e-06
1.84222e-06
1.84599e-06
1.85212e-06
1.86119e-06
1.87216e-06
1.88204e-06
1.88628e-06
1.87943e-06
1.86324e-06
1.85191e-06
1.85799e-06
1.81603e-06
1.81601e-06
1.81601e-06
1.81601e-06
1.81601e-06
1.81602e-06
1.81602e-06
1.81602e-06
1.81603e-06
1.81603e-06
1.81604e-06
1.81604e-06
1.81604e-06
1.81604e-06
1.81602e-06
1.81602e-06
1.81609e-06
1.81622e-06
1.81641e-06
1.81669e-06
1.81709e-06
1.81763e-06
1.81838e-06
1.81938e-06
1.82078e-06
1.82262e-06
1.8247e-06
1.82694e-06
1.82916e-06
1.83111e-06
1.83264e-06
1.83379e-06
1.83454e-06
1.83498e-06
1.83552e-06
1.83695e-06
1.83919e-06
1.84203e-06
1.84672e-06
1.85412e-06
1.86467e-06
1.87697e-06
1.88782e-06
1.89222e-06
1.8844e-06
1.86616e-06
1.85294e-06
1.85968e-06
1.81603e-06
1.81602e-06
1.81601e-06
1.81601e-06
1.81601e-06
1.81602e-06
1.81602e-06
1.81602e-06
1.81603e-06
1.81603e-06
1.81604e-06
1.81605e-06
1.81605e-06
1.81604e-06
1.81602e-06
1.81602e-06
1.81609e-06
1.81621e-06
1.8164e-06
1.81668e-06
1.81706e-06
1.81758e-06
1.81828e-06
1.8192e-06
1.82043e-06
1.82202e-06
1.82378e-06
1.82567e-06
1.82757e-06
1.82928e-06
1.83065e-06
1.83169e-06
1.83244e-06
1.833e-06
1.83367e-06
1.83566e-06
1.83867e-06
1.84226e-06
1.84798e-06
1.85674e-06
1.86871e-06
1.88227e-06
1.89405e-06
1.89846e-06
1.88958e-06
1.86942e-06
1.85449e-06
1.86214e-06
1.81603e-06
1.81602e-06
1.81602e-06
1.81601e-06
1.81602e-06
1.81602e-06
1.81602e-06
1.81602e-06
1.81603e-06
1.81604e-06
1.81604e-06
1.81605e-06
1.81605e-06
1.81604e-06
1.81602e-06
1.81602e-06
1.81609e-06
1.81621e-06
1.81639e-06
1.81666e-06
1.81703e-06
1.81751e-06
1.81816e-06
1.81899e-06
1.82007e-06
1.82142e-06
1.82287e-06
1.82445e-06
1.8261e-06
1.8276e-06
1.82883e-06
1.82984e-06
1.83064e-06
1.83118e-06
1.83206e-06
1.83471e-06
1.83854e-06
1.84293e-06
1.84979e-06
1.8599e-06
1.8732e-06
1.88802e-06
1.90055e-06
1.90473e-06
1.89473e-06
1.87287e-06
1.85664e-06
1.86567e-06
1.81603e-06
1.81602e-06
1.81602e-06
1.81602e-06
1.81602e-06
1.81602e-06
1.81602e-06
1.81603e-06
1.81603e-06
1.81604e-06
1.81604e-06
1.81605e-06
1.81605e-06
1.81604e-06
1.81602e-06
1.81602e-06
1.81608e-06
1.8162e-06
1.81638e-06
1.81663e-06
1.81698e-06
1.81744e-06
1.81804e-06
1.81877e-06
1.8197e-06
1.82082e-06
1.822e-06
1.82332e-06
1.82475e-06
1.82611e-06
1.82727e-06
1.82827e-06
1.829e-06
1.82957e-06
1.83071e-06
1.83409e-06
1.83875e-06
1.84406e-06
1.85211e-06
1.86348e-06
1.87807e-06
1.89402e-06
1.90705e-06
1.91081e-06
1.89961e-06
1.87629e-06
1.85939e-06
1.87041e-06
1.81603e-06
1.81602e-06
1.81602e-06
1.81602e-06
1.81602e-06
1.81602e-06
1.81602e-06
1.81603e-06
1.81603e-06
1.81604e-06
1.81604e-06
1.81605e-06
1.81605e-06
1.81605e-06
1.81603e-06
1.81602e-06
1.81608e-06
1.81619e-06
1.81636e-06
1.81661e-06
1.81694e-06
1.81736e-06
1.8179e-06
1.81855e-06
1.81932e-06
1.82024e-06
1.82119e-06
1.8223e-06
1.82357e-06
1.82484e-06
1.82595e-06
1.82686e-06
1.82756e-06
1.82818e-06
1.82963e-06
1.83373e-06
1.83937e-06
1.84566e-06
1.85485e-06
1.86741e-06
1.88322e-06
1.90006e-06
1.91336e-06
1.91656e-06
1.90411e-06
1.87949e-06
1.8627e-06
1.87645e-06
1.81603e-06
1.81602e-06
1.81602e-06
1.81602e-06
1.81602e-06
1.81602e-06
1.81602e-06
1.81603e-06
1.81603e-06
1.81604e-06
1.81605e-06
1.81605e-06
1.81605e-06
1.81605e-06
1.81603e-06
1.81602e-06
1.81607e-06
1.81618e-06
1.81635e-06
1.81658e-06
1.81689e-06
1.81728e-06
1.81776e-06
1.81832e-06
1.81895e-06
1.81969e-06
1.82046e-06
1.82142e-06
1.82259e-06
1.82379e-06
1.8248e-06
1.82565e-06
1.82634e-06
1.82703e-06
1.82876e-06
1.83367e-06
1.84036e-06
1.84763e-06
1.85788e-06
1.87159e-06
1.88845e-06
1.90595e-06
1.91932e-06
1.92177e-06
1.90802e-06
1.88244e-06
1.86647e-06
1.88365e-06
1.81604e-06
1.81602e-06
1.81602e-06
1.81602e-06
1.81602e-06
1.81602e-06
1.81602e-06
1.81603e-06
1.81603e-06
1.81604e-06
1.81605e-06
1.81605e-06
1.81606e-06
1.81605e-06
1.81603e-06
1.81602e-06
1.81607e-06
1.81617e-06
1.81633e-06
1.81654e-06
1.81683e-06
1.81718e-06
1.81761e-06
1.81809e-06
1.81859e-06
1.81918e-06
1.81982e-06
1.82069e-06
1.82179e-06
1.82289e-06
1.82383e-06
1.82465e-06
1.82534e-06
1.82608e-06
1.82808e-06
1.83391e-06
1.84169e-06
1.84988e-06
1.86112e-06
1.87589e-06
1.89354e-06
1.9115e-06
1.92474e-06
1.92623e-06
1.91113e-06
1.88495e-06
1.87052e-06
1.89185e-06
1.81604e-06
1.81602e-06
1.81602e-06
1.81602e-06
1.81602e-06
1.81602e-06
1.81602e-06
1.81603e-06
1.81604e-06
1.81604e-06
1.81605e-06
1.81606e-06
1.81606e-06
1.81605e-06
1.81604e-06
1.81602e-06
1.81606e-06
1.81616e-06
1.8163e-06
1.81651e-06
1.81677e-06
1.81709e-06
1.81746e-06
1.81786e-06
1.81825e-06
1.81872e-06
1.81928e-06
1.8201e-06
1.82112e-06
1.82216e-06
1.82307e-06
1.82385e-06
1.82451e-06
1.8253e-06
1.82763e-06
1.83441e-06
1.84325e-06
1.8523e-06
1.86449e-06
1.8801e-06
1.89833e-06
1.91655e-06
1.92942e-06
1.92989e-06
1.9134e-06
1.88684e-06
1.8748e-06
1.90109e-06
1.81604e-06
1.81602e-06
1.81602e-06
1.81602e-06
1.81602e-06
1.81602e-06
1.81603e-06
1.81603e-06
1.81604e-06
1.81604e-06
1.81605e-06
1.81606e-06
1.81606e-06
1.81606e-06
1.81604e-06
1.81602e-06
1.81606e-06
1.81615e-06
1.81628e-06
1.81647e-06
1.81671e-06
1.81699e-06
1.81731e-06
1.81763e-06
1.81793e-06
1.81832e-06
1.81885e-06
1.81962e-06
1.82059e-06
1.82158e-06
1.82245e-06
1.82318e-06
1.82385e-06
1.82473e-06
1.82741e-06
1.8351e-06
1.84493e-06
1.8548e-06
1.86779e-06
1.88403e-06
1.90268e-06
1.92092e-06
1.93334e-06
1.93277e-06
1.91485e-06
1.88807e-06
1.87934e-06
1.91144e-06
1.81604e-06
1.81602e-06
1.81602e-06
1.81602e-06
1.81602e-06
1.81602e-06
1.81603e-06
1.81603e-06
1.81604e-06
1.81604e-06
1.81605e-06
1.81606e-06
1.81606e-06
1.81606e-06
1.81605e-06
1.81602e-06
1.81605e-06
1.81613e-06
1.81626e-06
1.81643e-06
1.81665e-06
1.81689e-06
1.81717e-06
1.81743e-06
1.81765e-06
1.81799e-06
1.8185e-06
1.81924e-06
1.82017e-06
1.82112e-06
1.82195e-06
1.82268e-06
1.82338e-06
1.82439e-06
1.82738e-06
1.83588e-06
1.84665e-06
1.85725e-06
1.87084e-06
1.88756e-06
1.90641e-06
1.92457e-06
1.93651e-06
1.93484e-06
1.91551e-06
1.88871e-06
1.88402e-06
1.92273e-06
1.81604e-06
1.81603e-06
1.81602e-06
1.81602e-06
1.81602e-06
1.81602e-06
1.81603e-06
1.81603e-06
1.81604e-06
1.81605e-06
1.81605e-06
1.81606e-06
1.81606e-06
1.81606e-06
1.81605e-06
1.81602e-06
1.81605e-06
1.81612e-06
1.81624e-06
1.81639e-06
1.81658e-06
1.8168e-06
1.81703e-06
1.81723e-06
1.81742e-06
1.81774e-06
1.81823e-06
1.81894e-06
1.81983e-06
1.82075e-06
1.82158e-06
1.82234e-06
1.82312e-06
1.82428e-06
1.82753e-06
1.83669e-06
1.8483e-06
1.85945e-06
1.8735e-06
1.89053e-06
1.90945e-06
1.9275e-06
1.93891e-06
1.93606e-06
1.91536e-06
1.88879e-06
1.88863e-06
1.9345e-06
1.81604e-06
1.81603e-06
1.81602e-06
1.81602e-06
1.81602e-06
1.81603e-06
1.81603e-06
1.81603e-06
1.81604e-06
1.81605e-06
1.81605e-06
1.81606e-06
1.81607e-06
1.81606e-06
1.81605e-06
1.81603e-06
1.81604e-06
1.81611e-06
1.81621e-06
1.81635e-06
1.81652e-06
1.81671e-06
1.81689e-06
1.81706e-06
1.81724e-06
1.81756e-06
1.81803e-06
1.81871e-06
1.81956e-06
1.82048e-06
1.82134e-06
1.82216e-06
1.82306e-06
1.8244e-06
1.82782e-06
1.83749e-06
1.84973e-06
1.86127e-06
1.87564e-06
1.89283e-06
1.91177e-06
1.92969e-06
1.94049e-06
1.9364e-06
1.91441e-06
1.88836e-06
1.89313e-06
1.9467e-06
1.81604e-06
1.81603e-06
1.81603e-06
1.81602e-06
1.81602e-06
1.81603e-06
1.81603e-06
1.81604e-06
1.81604e-06
1.81605e-06
1.81606e-06
1.81606e-06
1.81607e-06
1.81607e-06
1.81606e-06
1.81603e-06
1.81604e-06
1.8161e-06
1.81619e-06
1.81631e-06
1.81646e-06
1.81662e-06
1.81678e-06
1.81692e-06
1.81711e-06
1.81744e-06
1.81788e-06
1.81852e-06
1.81936e-06
1.8203e-06
1.82122e-06
1.82213e-06
1.8232e-06
1.82475e-06
1.82829e-06
1.8382e-06
1.85082e-06
1.86261e-06
1.87715e-06
1.89442e-06
1.91339e-06
1.93109e-06
1.94119e-06
1.93584e-06
1.91266e-06
1.88744e-06
1.89754e-06
1.95919e-06
1.81604e-06
1.81603e-06
1.81603e-06
1.81602e-06
1.81603e-06
1.81603e-06
1.81603e-06
1.81604e-06
1.81604e-06
1.81605e-06
1.81606e-06
1.81606e-06
1.81607e-06
1.81607e-06
1.81606e-06
1.81604e-06
1.81604e-06
1.81609e-06
1.81617e-06
1.81628e-06
1.8164e-06
1.81654e-06
1.81667e-06
1.81681e-06
1.81705e-06
1.81736e-06
1.81777e-06
1.81839e-06
1.81922e-06
1.82018e-06
1.82119e-06
1.82225e-06
1.82356e-06
1.82541e-06
1.82897e-06
1.83876e-06
1.85151e-06
1.86341e-06
1.87801e-06
1.89533e-06
1.91428e-06
1.93168e-06
1.94099e-06
1.93439e-06
1.91015e-06
1.88604e-06
1.90182e-06
1.9715e-06
1.81604e-06
1.81603e-06
1.81603e-06
1.81603e-06
1.81603e-06
1.81603e-06
1.81603e-06
1.81604e-06
1.81604e-06
1.81605e-06
1.81606e-06
1.81607e-06
1.81607e-06
1.81607e-06
1.81606e-06
1.81605e-06
1.81604e-06
1.81608e-06
1.81615e-06
1.81624e-06
1.81635e-06
1.81647e-06
1.81659e-06
1.81674e-06
1.81702e-06
1.81733e-06
1.8177e-06
1.81828e-06
1.81911e-06
1.82012e-06
1.82126e-06
1.82254e-06
1.8242e-06
1.82644e-06
1.82988e-06
1.83916e-06
1.85175e-06
1.86362e-06
1.87823e-06
1.89558e-06
1.91441e-06
1.93142e-06
1.93993e-06
1.9321e-06
1.90694e-06
1.88422e-06
1.90596e-06
1.98331e-06
1.81605e-06
1.81603e-06
1.81603e-06
1.81603e-06
1.81603e-06
1.81603e-06
1.81603e-06
1.81604e-06
1.81605e-06
1.81605e-06
1.81606e-06
1.81607e-06
1.81607e-06
1.81607e-06
1.81607e-06
1.81605e-06
1.81604e-06
1.81607e-06
1.81613e-06
1.81621e-06
1.81631e-06
1.81641e-06
1.81654e-06
1.8167e-06
1.81703e-06
1.81732e-06
1.81764e-06
1.8182e-06
1.81904e-06
1.82014e-06
1.82147e-06
1.82305e-06
1.82517e-06
1.82793e-06
1.83113e-06
1.83947e-06
1.85157e-06
1.86329e-06
1.87784e-06
1.89516e-06
1.91377e-06
1.93034e-06
1.93802e-06
1.92901e-06
1.90311e-06
1.88204e-06
1.90986e-06
1.99444e-06
1.81605e-06
1.81604e-06
1.81603e-06
1.81603e-06
1.81603e-06
1.81603e-06
1.81604e-06
1.81604e-06
1.81605e-06
1.81605e-06
1.81606e-06
1.81607e-06
1.81607e-06
1.81608e-06
1.81607e-06
1.81606e-06
1.81605e-06
1.81607e-06
1.81612e-06
1.81619e-06
1.81627e-06
1.81637e-06
1.81651e-06
1.81671e-06
1.81707e-06
1.81734e-06
1.8176e-06
1.81812e-06
1.81901e-06
1.82025e-06
1.82184e-06
1.82382e-06
1.82654e-06
1.82993e-06
1.83287e-06
1.83978e-06
1.85106e-06
1.86247e-06
1.87688e-06
1.89404e-06
1.91238e-06
1.92846e-06
1.93532e-06
1.92522e-06
1.89876e-06
1.87953e-06
1.91333e-06
2.00451e-06
1.81605e-06
1.81604e-06
1.81603e-06
1.81603e-06
1.81603e-06
1.81603e-06
1.81604e-06
1.81604e-06
1.81605e-06
1.81606e-06
1.81606e-06
1.81607e-06
1.81608e-06
1.81608e-06
1.81608e-06
1.81607e-06
1.81606e-06
1.81607e-06
1.81611e-06
1.81617e-06
1.81625e-06
1.81635e-06
1.81651e-06
1.81674e-06
1.81713e-06
1.81737e-06
1.81756e-06
1.81806e-06
1.81902e-06
1.82046e-06
1.82238e-06
1.82489e-06
1.82835e-06
1.8325e-06
1.83518e-06
1.84029e-06
1.85035e-06
1.86126e-06
1.87536e-06
1.89226e-06
1.91026e-06
1.92583e-06
1.9319e-06
1.92084e-06
1.894e-06
1.87675e-06
1.91621e-06
2.01309e-06
1.81605e-06
1.81604e-06
1.81603e-06
1.81603e-06
1.81603e-06
1.81603e-06
1.81604e-06
1.81604e-06
1.81605e-06
1.81606e-06
1.81607e-06
1.81607e-06
1.81608e-06
1.81608e-06
1.81608e-06
1.81607e-06
1.81606e-06
1.81607e-06
1.81611e-06
1.81616e-06
1.81624e-06
1.81635e-06
1.81653e-06
1.81679e-06
1.8172e-06
1.8174e-06
1.81752e-06
1.818e-06
1.81907e-06
1.82078e-06
1.82317e-06
1.82631e-06
1.83064e-06
1.83557e-06
1.83821e-06
1.84126e-06
1.84964e-06
1.85975e-06
1.87334e-06
1.88988e-06
1.90749e-06
1.92253e-06
1.92786e-06
1.91598e-06
1.88898e-06
1.87374e-06
1.91839e-06
2.01999e-06
1.81605e-06
1.81604e-06
1.81603e-06
1.81603e-06
1.81603e-06
1.81604e-06
1.81604e-06
1.81605e-06
1.81605e-06
1.81606e-06
1.81607e-06
1.81608e-06
1.81608e-06
1.81609e-06
1.81609e-06
1.81608e-06
1.81608e-06
1.81608e-06
1.81611e-06
1.81617e-06
1.81624e-06
1.81637e-06
1.81657e-06
1.81687e-06
1.81728e-06
1.81742e-06
1.81746e-06
1.81795e-06
1.81919e-06
1.82128e-06
1.82422e-06
1.82812e-06
1.83324e-06
1.839e-06
1.84188e-06
1.84296e-06
1.84914e-06
1.85808e-06
1.87092e-06
1.88697e-06
1.90412e-06
1.91865e-06
1.92333e-06
1.91079e-06
1.88383e-06
1.87059e-06
1.91974e-06
2.025e-06
1.81605e-06
1.81604e-06
1.81604e-06
1.81603e-06
1.81603e-06
1.81604e-06
1.81604e-06
1.81605e-06
1.81605e-06
1.81606e-06
1.81607e-06
1.81608e-06
1.81608e-06
1.81609e-06
1.81609e-06
1.81609e-06
1.81609e-06
1.81609e-06
1.81612e-06
1.81618e-06
1.81626e-06
1.8164e-06
1.81663e-06
1.81695e-06
1.81736e-06
1.81743e-06
1.81738e-06
1.81791e-06
1.81941e-06
1.82197e-06
1.82557e-06
1.8302e-06
1.83608e-06
1.84268e-06
1.84615e-06
1.84561e-06
1.84911e-06
1.85643e-06
1.86824e-06
1.88364e-06
1.90027e-06
1.9143e-06
1.91844e-06
1.90545e-06
1.87872e-06
1.86735e-06
1.92012e-06
2.02781e-06
1.81605e-06
1.81604e-06
1.81604e-06
1.81604e-06
1.81604e-06
1.81604e-06
1.81604e-06
1.81605e-06
1.81606e-06
1.81606e-06
1.81607e-06
1.81608e-06
1.81609e-06
1.81609e-06
1.81609e-06
1.8161e-06
1.8161e-06
1.81611e-06
1.81614e-06
1.81619e-06
1.81629e-06
1.81645e-06
1.8167e-06
1.81704e-06
1.81743e-06
1.81742e-06
1.81729e-06
1.81791e-06
1.81976e-06
1.82288e-06
1.82715e-06
1.83248e-06
1.83907e-06
1.84657e-06
1.85092e-06
1.84946e-06
1.84993e-06
1.85505e-06
1.86547e-06
1.88001e-06
1.89605e-06
1.90961e-06
1.91335e-06
1.90012e-06
1.87383e-06
1.86414e-06
1.91946e-06
2.02825e-06
1.81605e-06
1.81605e-06
1.81604e-06
1.81604e-06
1.81604e-06
1.81604e-06
1.81604e-06
1.81605e-06
1.81606e-06
1.81607e-06
1.81607e-06
1.81608e-06
1.81609e-06
1.8161e-06
1.8161e-06
1.8161e-06
1.81611e-06
1.81612e-06
1.81616e-06
1.81622e-06
1.81633e-06
1.8165e-06
1.81678e-06
1.81713e-06
1.81749e-06
1.81739e-06
1.81719e-06
1.81797e-06
1.82025e-06
1.82395e-06
1.82886e-06
1.83487e-06
1.84218e-06
1.85061e-06
1.85611e-06
1.85426e-06
1.85183e-06
1.85427e-06
1.86284e-06
1.87626e-06
1.8916e-06
1.90473e-06
1.9082e-06
1.89498e-06
1.86932e-06
1.86104e-06
1.91774e-06
2.02637e-06
1.81605e-06
1.81605e-06
1.81604e-06
1.81604e-06
1.81604e-06
1.81604e-06
1.81605e-06
1.81605e-06
1.81606e-06
1.81607e-06
1.81608e-06
1.81609e-06
1.81609e-06
1.8161e-06
1.8161e-06
1.81611e-06
1.81612e-06
1.81614e-06
1.81618e-06
1.81625e-06
1.81637e-06
1.81656e-06
1.81685e-06
1.81721e-06
1.81753e-06
1.81734e-06
1.81709e-06
1.8181e-06
1.82086e-06
1.82511e-06
1.83064e-06
1.83734e-06
1.84539e-06
1.85476e-06
1.86162e-06
1.86006e-06
1.85518e-06
1.8545e-06
1.86062e-06
1.87259e-06
1.88711e-06
1.8998e-06
1.90316e-06
1.8902e-06
1.86538e-06
1.8582e-06
1.91499e-06
2.02229e-06
1.81605e-06
1.81605e-06
1.81604e-06
1.81604e-06
1.81604e-06
1.81604e-06
1.81605e-06
1.81605e-06
1.81606e-06
1.81607e-06
1.81608e-06
1.81609e-06
1.8161e-06
1.8161e-06
1.81611e-06
1.81612e-06
1.81613e-06
1.81616e-06
1.8162e-06
1.81628e-06
1.81641e-06
1.81662e-06
1.81692e-06
1.81728e-06
1.81755e-06
1.81727e-06
1.817e-06
1.81833e-06
1.82153e-06
1.82629e-06
1.83244e-06
1.83984e-06
1.84863e-06
1.85893e-06
1.86731e-06
1.8667e-06
1.86013e-06
1.85604e-06
1.85919e-06
1.86926e-06
1.88275e-06
1.89499e-06
1.89838e-06
1.88595e-06
1.86219e-06
1.85577e-06
1.91131e-06
2.01613e-06
1.81605e-06
1.81605e-06
1.81605e-06
1.81604e-06
1.81604e-06
1.81605e-06
1.81605e-06
1.81606e-06
1.81607e-06
1.81607e-06
1.81608e-06
1.81609e-06
1.8161e-06
1.81611e-06
1.81612e-06
1.81613e-06
1.81614e-06
1.81617e-06
1.81622e-06
1.81631e-06
1.81645e-06
1.81667e-06
1.81698e-06
1.81733e-06
1.81756e-06
1.8172e-06
1.81695e-06
1.81862e-06
1.82222e-06
1.82747e-06
1.83422e-06
1.84233e-06
1.85186e-06
1.86307e-06
1.87305e-06
1.87401e-06
1.86649e-06
1.85929e-06
1.85897e-06
1.86656e-06
1.87874e-06
1.89048e-06
1.89402e-06
1.88238e-06
1.85994e-06
1.85397e-06
1.90686e-06
2.00811e-06
1.81605e-06
1.81606e-06
1.81605e-06
1.81604e-06
1.81604e-06
1.81605e-06
1.81605e-06
1.81606e-06
1.81607e-06
1.81608e-06
1.81609e-06
1.8161e-06
1.8161e-06
1.81611e-06
1.81612e-06
1.81613e-06
1.81615e-06
1.81619e-06
1.81625e-06
1.81634e-06
1.8165e-06
1.81672e-06
1.81704e-06
1.81738e-06
1.81756e-06
1.81712e-06
1.81693e-06
1.81894e-06
1.8229e-06
1.82859e-06
1.83593e-06
1.84474e-06
1.85502e-06
1.8671e-06
1.87872e-06
1.88178e-06
1.87424e-06
1.8646e-06
1.86034e-06
1.86489e-06
1.87536e-06
1.88645e-06
1.89021e-06
1.87961e-06
1.85883e-06
1.85308e-06
1.90192e-06
1.99861e-06
1.81605e-06
1.81606e-06
1.81605e-06
1.81605e-06
1.81605e-06
1.81605e-06
1.81605e-06
1.81606e-06
1.81607e-06
1.81608e-06
1.81609e-06
1.8161e-06
1.81611e-06
1.81612e-06
1.81613e-06
1.81614e-06
1.81617e-06
1.81621e-06
1.81627e-06
1.81637e-06
1.81653e-06
1.81677e-06
1.81708e-06
1.81741e-06
1.81755e-06
1.81705e-06
1.81696e-06
1.81927e-06
1.82354e-06
1.82964e-06
1.83754e-06
1.84705e-06
1.85807e-06
1.87097e-06
1.88417e-06
1.88977e-06
1.88309e-06
1.87163e-06
1.86369e-06
1.86468e-06
1.87289e-06
1.88309e-06
1.88708e-06
1.87777e-06
1.8591e-06
1.85371e-06
1.89684e-06
1.98809e-06
1.81605e-06
1.81606e-06
1.81605e-06
1.81605e-06
1.81605e-06
1.81605e-06
1.81606e-06
1.81606e-06
1.81607e-06
1.81608e-06
1.81609e-06
1.8161e-06
1.81611e-06
1.81612e-06
1.81614e-06
1.81615e-06
1.81618e-06
1.81622e-06
1.81629e-06
1.8164e-06
1.81657e-06
1.8168e-06
1.81712e-06
1.81744e-06
1.81753e-06
1.81699e-06
1.81704e-06
1.81958e-06
1.82412e-06
1.83059e-06
1.83901e-06
1.84919e-06
1.86096e-06
1.87465e-06
1.88931e-06
1.8977e-06
1.89282e-06
1.88042e-06
1.86961e-06
1.86634e-06
1.87171e-06
1.88064e-06
1.88479e-06
1.87697e-06
1.86107e-06
1.85599e-06
1.89206e-06
1.97707e-06
1.81605e-06
1.81606e-06
1.81605e-06
1.81605e-06
1.81605e-06
1.81605e-06
1.81606e-06
1.81607e-06
1.81608e-06
1.81609e-06
1.8161e-06
1.81611e-06
1.81612e-06
1.81613e-06
1.81614e-06
1.81616e-06
1.81619e-06
1.81624e-06
1.81631e-06
1.81643e-06
1.8166e-06
1.81684e-06
1.81715e-06
1.81746e-06
1.81752e-06
1.81694e-06
1.81713e-06
1.81986e-06
1.82462e-06
1.83142e-06
1.84031e-06
1.85113e-06
1.86365e-06
1.87808e-06
1.89405e-06
1.9053e-06
1.90307e-06
1.89071e-06
1.87746e-06
1.87024e-06
1.87228e-06
1.87937e-06
1.8835e-06
1.87732e-06
1.86452e-06
1.86027e-06
1.88806e-06
1.96611e-06
1.81605e-06
1.81607e-06
1.81606e-06
1.81605e-06
1.81605e-06
1.81606e-06
1.81606e-06
1.81607e-06
1.81608e-06
1.81609e-06
1.8161e-06
1.81611e-06
1.81613e-06
1.81614e-06
1.81615e-06
1.81617e-06
1.8162e-06
1.81625e-06
1.81633e-06
1.81645e-06
1.81663e-06
1.81687e-06
1.81717e-06
1.81748e-06
1.8175e-06
1.8169e-06
1.81724e-06
1.8201e-06
1.82503e-06
1.8321e-06
1.84141e-06
1.85283e-06
1.86609e-06
1.88123e-06
1.89836e-06
1.91237e-06
1.91346e-06
1.90217e-06
1.8874e-06
1.87704e-06
1.87491e-06
1.87966e-06
1.88342e-06
1.879e-06
1.86983e-06
1.86733e-06
1.88543e-06
1.95572e-06
1.81604e-06
1.81607e-06
1.81606e-06
1.81606e-06
1.81606e-06
1.81606e-06
1.81607e-06
1.81607e-06
1.81608e-06
1.8161e-06
1.81611e-06
1.81612e-06
1.81613e-06
1.81615e-06
1.81616e-06
1.81618e-06
1.81622e-06
1.81627e-06