/*--------------------------------*- C++ -*----------------------------------*\
  =========                 |
  \\      /  F ield         | OpenFOAM: The Open Source CFD Toolbox
   \\    /   O peration     | Website:  https://openfoam.org
    \\  /    A nd           | Version:  10
     \\/     M anipulation  |
\*---------------------------------------------------------------------------*/
FoamFile
{
    format      ascii;
    class       volScalarField;
    location    "10";
    object      nuTilda;
}
// * * * * * * * * * * * * * * * * * * * * * * * * * * * * * * * * * * * * * //

dimensions      [0 2 -1 0 0 0 0];

internalField   nonuniform List<scalar> 
38016
(
2.60001e-05
2.6e-05
2.6e-05
2.6e-05
2.6e-05
2.6e-05
2.60001e-05
2.60001e-05
2.60001e-05
2.60001e-05
2.60001e-05
2.60001e-05
2.60001e-05
2.60001e-05
2.6e-05
2.60001e-05
2.60003e-05
2.60006e-05
2.60011e-05
2.6002e-05
2.60033e-05
2.60054e-05
2.60088e-05
2.60145e-05
2.60243e-05
2.60399e-05
2.60607e-05
2.60858e-05
2.61138e-05
2.61429e-05
2.61714e-05
2.61979e-05
2.62212e-05
2.62405e-05
2.62549e-05
2.62644e-05
2.62689e-05
2.62686e-05
2.62642e-05
2.62566e-05
2.62468e-05
2.62371e-05
2.62321e-05
2.62319e-05
2.62342e-05
2.62442e-05
2.62612e-05
2.62584e-05
2.60001e-05
2.6e-05
2.6e-05
2.6e-05
2.6e-05
2.60001e-05
2.60001e-05
2.60001e-05
2.60001e-05
2.60001e-05
2.60001e-05
2.60001e-05
2.60001e-05
2.60001e-05
2.6e-05
2.60001e-05
2.60003e-05
2.60006e-05
2.60012e-05
2.6002e-05
2.60033e-05
2.60054e-05
2.60088e-05
2.60144e-05
2.60242e-05
2.60398e-05
2.60605e-05
2.60854e-05
2.61132e-05
2.61419e-05
2.617e-05
2.61957e-05
2.62181e-05
2.62362e-05
2.62494e-05
2.62575e-05
2.62607e-05
2.62592e-05
2.62537e-05
2.62455e-05
2.62362e-05
2.62278e-05
2.62232e-05
2.62229e-05
2.62246e-05
2.62338e-05
2.6251e-05
2.62476e-05
2.60001e-05
2.6e-05
2.6e-05
2.6e-05
2.6e-05
2.60001e-05
2.60001e-05
2.60001e-05
2.60001e-05
2.60001e-05
2.60001e-05
2.60001e-05
2.60001e-05
2.60001e-05
2.6e-05
2.60001e-05
2.60003e-05
2.60007e-05
2.60012e-05
2.60021e-05
2.60035e-05
2.60057e-05
2.60092e-05
2.6015e-05
2.6025e-05
2.60408e-05
2.60617e-05
2.60867e-05
2.61143e-05
2.61426e-05
2.61698e-05
2.61944e-05
2.62153e-05
2.62317e-05
2.62432e-05
2.62495e-05
2.6251e-05
2.62481e-05
2.62416e-05
2.62328e-05
2.62237e-05
2.62165e-05
2.62129e-05
2.62123e-05
2.62133e-05
2.6222e-05
2.62396e-05
2.62349e-05
2.60001e-05
2.6e-05
2.6e-05
2.6e-05
2.6e-05
2.60001e-05
2.60001e-05
2.60001e-05
2.60001e-05
2.60001e-05
2.60001e-05
2.60001e-05
2.60001e-05
2.60001e-05
2.6e-05
2.60001e-05
2.60003e-05
2.60007e-05
2.60013e-05
2.60022e-05
2.60037e-05
2.60059e-05
2.60096e-05
2.60155e-05
2.60256e-05
2.60415e-05
2.60625e-05
2.60874e-05
2.61147e-05
2.61424e-05
2.61686e-05
2.6192e-05
2.62115e-05
2.62262e-05
2.62358e-05
2.62404e-05
2.62403e-05
2.6236e-05
2.62284e-05
2.62192e-05
2.62106e-05
2.6205e-05
2.62036e-05
2.62037e-05
2.62041e-05
2.62125e-05
2.62312e-05
2.62268e-05
2.60001e-05
2.60001e-05
2.60001e-05
2.6e-05
2.60001e-05
2.60001e-05
2.60001e-05
2.60001e-05
2.60001e-05
2.60001e-05
2.60001e-05
2.60001e-05
2.60001e-05
2.60001e-05
2.6e-05
2.60001e-05
2.60003e-05
2.60007e-05
2.60013e-05
2.60023e-05
2.60038e-05
2.60061e-05
2.60099e-05
2.60158e-05
2.60261e-05
2.60421e-05
2.60629e-05
2.60876e-05
2.61144e-05
2.61413e-05
2.61665e-05
2.61885e-05
2.62064e-05
2.62194e-05
2.62273e-05
2.62302e-05
2.62286e-05
2.62231e-05
2.62149e-05
2.62057e-05
2.61983e-05
2.61954e-05
2.61957e-05
2.61965e-05
2.61962e-05
2.62035e-05
2.62228e-05
2.62193e-05
2.60001e-05
2.60001e-05
2.60001e-05
2.60001e-05
2.60001e-05
2.60001e-05
2.60001e-05
2.60001e-05
2.60001e-05
2.60001e-05
2.60001e-05
2.60001e-05
2.60001e-05
2.60001e-05
2.6e-05
2.60001e-05
2.60004e-05
2.60008e-05
2.60014e-05
2.60024e-05
2.6004e-05
2.60064e-05
2.60102e-05
2.60162e-05
2.60265e-05
2.60425e-05
2.60632e-05
2.60875e-05
2.61137e-05
2.61397e-05
2.61637e-05
2.61843e-05
2.62006e-05
2.6212e-05
2.62183e-05
2.62198e-05
2.6217e-05
2.62107e-05
2.62022e-05
2.61936e-05
2.61884e-05
2.61875e-05
2.61892e-05
2.61904e-05
2.61892e-05
2.61948e-05
2.62136e-05
2.62115e-05
2.60001e-05
2.60001e-05
2.60001e-05
2.60001e-05
2.60001e-05
2.60001e-05
2.60001e-05
2.60001e-05
2.60001e-05
2.60001e-05
2.60001e-05
2.60001e-05
2.60001e-05
2.60001e-05
2.6e-05
2.60001e-05
2.60004e-05
2.60008e-05
2.60015e-05
2.60025e-05
2.60041e-05
2.60066e-05
2.60104e-05
2.60165e-05
2.60268e-05
2.60427e-05
2.60631e-05
2.60869e-05
2.61124e-05
2.61373e-05
2.61601e-05
2.61792e-05
2.61939e-05
2.62036e-05
2.62084e-05
2.62086e-05
2.62049e-05
2.6198e-05
2.61896e-05
2.61823e-05
2.61795e-05
2.61805e-05
2.61836e-05
2.61854e-05
2.61834e-05
2.61864e-05
2.62039e-05
2.62036e-05
2.60001e-05
2.60001e-05
2.60001e-05
2.60001e-05
2.60001e-05
2.60001e-05
2.60001e-05
2.60001e-05
2.60001e-05
2.60001e-05
2.60001e-05
2.60001e-05
2.60001e-05
2.60001e-05
2.6e-05
2.60001e-05
2.60004e-05
2.60008e-05
2.60015e-05
2.60026e-05
2.60042e-05
2.60067e-05
2.60106e-05
2.60168e-05
2.6027e-05
2.60426e-05
2.60627e-05
2.60859e-05
2.61104e-05
2.61342e-05
2.61555e-05
2.61731e-05
2.61862e-05
2.61944e-05
2.61978e-05
2.61969e-05
2.61924e-05
2.61854e-05
2.61776e-05
2.61724e-05
2.61717e-05
2.61747e-05
2.61794e-05
2.61823e-05
2.61791e-05
2.61788e-05
2.61944e-05
2.61961e-05
2.60001e-05
2.60001e-05
2.60001e-05
2.60001e-05
2.60001e-05
2.60001e-05
2.60001e-05
2.60001e-05
2.60001e-05
2.60001e-05
2.60001e-05
2.60001e-05
2.60001e-05
2.60001e-05
2.6e-05
2.60001e-05
2.60004e-05
2.60008e-05
2.60016e-05
2.60027e-05
2.60043e-05
2.60069e-05
2.60108e-05
2.60169e-05
2.60271e-05
2.60424e-05
2.60619e-05
2.60843e-05
2.61078e-05
2.61303e-05
2.61501e-05
2.61661e-05
2.61777e-05
2.61844e-05
2.61866e-05
2.61847e-05
2.61799e-05
2.6173e-05
2.61665e-05
2.61637e-05
2.61652e-05
2.61703e-05
2.61771e-05
2.61811e-05
2.61763e-05
2.61722e-05
2.61852e-05
2.6189e-05
2.60001e-05
2.60001e-05
2.60001e-05
2.60001e-05
2.60001e-05
2.60001e-05
2.60001e-05
2.60001e-05
2.60001e-05
2.60001e-05
2.60001e-05
2.60001e-05
2.60001e-05
2.60001e-05
2.6e-05
2.60001e-05
2.60004e-05
2.60009e-05
2.60016e-05
2.60027e-05
2.60045e-05
2.6007e-05
2.6011e-05
2.6017e-05
2.6027e-05
2.60419e-05
2.60608e-05
2.60823e-05
2.61046e-05
2.61257e-05
2.61439e-05
2.61583e-05
2.61684e-05
2.61738e-05
2.61749e-05
2.61724e-05
2.61674e-05
2.61612e-05
2.61567e-05
2.61561e-05
2.616e-05
2.61675e-05
2.61769e-05
2.61818e-05
2.61752e-05
2.6167e-05
2.61766e-05
2.61824e-05
2.60001e-05
2.60001e-05
2.60001e-05
2.60001e-05
2.60001e-05
2.60001e-05
2.60001e-05
2.60001e-05
2.60001e-05
2.60001e-05
2.60001e-05
2.60001e-05
2.60001e-05
2.60001e-05
2.6e-05
2.60001e-05
2.60004e-05
2.60009e-05
2.60017e-05
2.60028e-05
2.60045e-05
2.60071e-05
2.60111e-05
2.60171e-05
2.60268e-05
2.60412e-05
2.60593e-05
2.60797e-05
2.61007e-05
2.61203e-05
2.6137e-05
2.61498e-05
2.61584e-05
2.61627e-05
2.61628e-05
2.616e-05
2.61553e-05
2.61504e-05
2.61482e-05
2.61498e-05
2.6156e-05
2.61666e-05
2.61789e-05
2.61847e-05
2.61764e-05
2.61634e-05
2.61687e-05
2.61763e-05
2.60001e-05
2.60001e-05
2.60001e-05
2.60001e-05
2.60001e-05
2.60001e-05
2.60001e-05
2.60001e-05
2.60001e-05
2.60001e-05
2.60001e-05
2.60002e-05
2.60002e-05
2.60001e-05
2.6e-05
2.60001e-05
2.60004e-05
2.60009e-05
2.60017e-05
2.60029e-05
2.60046e-05
2.60072e-05
2.60111e-05
2.6017e-05
2.60264e-05
2.60402e-05
2.60574e-05
2.60767e-05
2.60963e-05
2.61143e-05
2.61293e-05
2.61407e-05
2.61479e-05
2.61511e-05
2.61507e-05
2.61478e-05
2.61439e-05
2.61409e-05
2.61407e-05
2.61447e-05
2.61538e-05
2.61679e-05
2.6183e-05
2.619e-05
2.61798e-05
2.61616e-05
2.61617e-05
2.61711e-05
2.60001e-05
2.60001e-05
2.60001e-05
2.60001e-05
2.60001e-05
2.60001e-05
2.60001e-05
2.60001e-05
2.60001e-05
2.60001e-05
2.60001e-05
2.60002e-05
2.60002e-05
2.60001e-05
2.6e-05
2.60001e-05
2.60004e-05
2.60009e-05
2.60017e-05
2.60029e-05
2.60047e-05
2.60073e-05
2.60111e-05
2.60168e-05
2.60259e-05
2.6039e-05
2.60552e-05
2.60732e-05
2.60912e-05
2.61077e-05
2.61211e-05
2.6131e-05
2.61371e-05
2.61394e-05
2.61385e-05
2.6136e-05
2.61335e-05
2.61326e-05
2.61346e-05
2.61409e-05
2.61534e-05
2.61714e-05
2.61895e-05
2.6198e-05
2.61857e-05
2.61617e-05
2.61559e-05
2.61667e-05
2.60001e-05
2.60001e-05
2.60001e-05
2.60001e-05
2.60001e-05
2.60001e-05
2.60001e-05
2.60001e-05
2.60001e-05
2.60001e-05
2.60002e-05
2.60002e-05
2.60002e-05
2.60001e-05
2.60001e-05
2.60001e-05
2.60004e-05
2.60009e-05
2.60017e-05
2.60029e-05
2.60047e-05
2.60073e-05
2.60111e-05
2.60166e-05
2.60252e-05
2.60376e-05
2.60526e-05
2.60692e-05
2.60857e-05
2.61005e-05
2.61124e-05
2.61209e-05
2.6126e-05
2.61277e-05
2.61267e-05
2.6125e-05
2.61246e-05
2.61254e-05
2.61297e-05
2.61387e-05
2.61552e-05
2.6177e-05
2.61986e-05
2.62086e-05
2.61941e-05
2.61638e-05
2.61514e-05
2.61636e-05
2.60001e-05
2.60001e-05
2.60001e-05
2.60001e-05
2.60001e-05
2.60001e-05
2.60001e-05
2.60001e-05
2.60001e-05
2.60001e-05
2.60002e-05
2.60002e-05
2.60002e-05
2.60001e-05
2.60001e-05
2.60001e-05
2.60004e-05
2.6001e-05
2.60018e-05
2.6003e-05
2.60047e-05
2.60072e-05
2.60109e-05
2.60163e-05
2.60244e-05
2.60359e-05
2.60497e-05
2.60648e-05
2.60798e-05
2.60929e-05
2.61034e-05
2.61107e-05
2.61149e-05
2.61162e-05
2.61154e-05
2.61152e-05
2.61168e-05
2.61195e-05
2.61259e-05
2.61384e-05
2.6159e-05
2.61851e-05
2.62104e-05
2.6222e-05
2.6205e-05
2.6168e-05
2.61485e-05
2.61618e-05
2.60001e-05
2.60001e-05
2.60001e-05
2.60001e-05
2.60001e-05
2.60001e-05
2.60001e-05
2.60001e-05
2.60001e-05
2.60001e-05
2.60002e-05
2.60002e-05
2.60002e-05
2.60002e-05
2.60001e-05
2.60001e-05
2.60004e-05
2.6001e-05
2.60018e-05
2.6003e-05
2.60047e-05
2.60072e-05
2.60108e-05
2.60158e-05
2.60234e-05
2.6034e-05
2.60465e-05
2.60601e-05
2.60735e-05
2.60851e-05
2.60942e-05
2.61004e-05
2.6104e-05
2.61051e-05
2.6105e-05
2.61067e-05
2.61101e-05
2.61148e-05
2.61238e-05
2.614e-05
2.61649e-05
2.61957e-05
2.6225e-05
2.6238e-05
2.62181e-05
2.61741e-05
2.61473e-05
2.61618e-05
2.60001e-05
2.60001e-05
2.60001e-05
2.60001e-05
2.60001e-05
2.60001e-05
2.60001e-05
2.60001e-05
2.60001e-05
2.60002e-05
2.60002e-05
2.60002e-05
2.60002e-05
2.60002e-05
2.60001e-05
2.60001e-05
2.60004e-05
2.6001e-05
2.60018e-05
2.6003e-05
2.60047e-05
2.60071e-05
2.60105e-05
2.60153e-05
2.60223e-05
2.60319e-05
2.60431e-05
2.60552e-05
2.60669e-05
2.60771e-05
2.60849e-05
2.60904e-05
2.60935e-05
2.60949e-05
2.60959e-05
2.60992e-05
2.61047e-05
2.61113e-05
2.61233e-05
2.61436e-05
2.61731e-05
2.6209e-05
2.62422e-05
2.62562e-05
2.6233e-05
2.61818e-05
2.61481e-05
2.6164e-05
2.60001e-05
2.60001e-05
2.60001e-05
2.60001e-05
2.60001e-05
2.60001e-05
2.60001e-05
2.60001e-05
2.60001e-05
2.60002e-05
2.60002e-05
2.60002e-05
2.60002e-05
2.60002e-05
2.60001e-05
2.60001e-05
2.60004e-05
2.60009e-05
2.60017e-05
2.60029e-05
2.60046e-05
2.60069e-05
2.60102e-05
2.60147e-05
2.60211e-05
2.60297e-05
2.60395e-05
2.60501e-05
2.60603e-05
2.60692e-05
2.6076e-05
2.60808e-05
2.60838e-05
2.60857e-05
2.60878e-05
2.60929e-05
2.61003e-05
2.61092e-05
2.61247e-05
2.6149e-05
2.61836e-05
2.62248e-05
2.62616e-05
2.62761e-05
2.62494e-05
2.61908e-05
2.61509e-05
2.61686e-05
2.60001e-05
2.60001e-05
2.60001e-05
2.60001e-05
2.60001e-05
2.60001e-05
2.60001e-05
2.60001e-05
2.60001e-05
2.60002e-05
2.60002e-05
2.60002e-05
2.60002e-05
2.60002e-05
2.60001e-05
2.60001e-05
2.60004e-05
2.60009e-05
2.60017e-05
2.60029e-05
2.60045e-05
2.60068e-05
2.60099e-05
2.6014e-05
2.60198e-05
2.60273e-05
2.60358e-05
2.60449e-05
2.60538e-05
2.60615e-05
2.60675e-05
2.60719e-05
2.60752e-05
2.60776e-05
2.60805e-05
2.60875e-05
2.60971e-05
2.61088e-05
2.61278e-05
2.61566e-05
2.61965e-05
2.62428e-05
2.62829e-05
2.62977e-05
2.62672e-05
2.62011e-05
2.61554e-05
2.61762e-05
2.60002e-05
2.60001e-05
2.60001e-05
2.60001e-05
2.60001e-05
2.60001e-05
2.60001e-05
2.60001e-05
2.60001e-05
2.60002e-05
2.60002e-05
2.60002e-05
2.60002e-05
2.60002e-05
2.60001e-05
2.60001e-05
2.60004e-05
2.60009e-05
2.60017e-05
2.60028e-05
2.60044e-05
2.60066e-05
2.60095e-05
2.60133e-05
2.60184e-05
2.60249e-05
2.60321e-05
2.60398e-05
2.60474e-05
2.60542e-05
2.60597e-05
2.60642e-05
2.60678e-05
2.60704e-05
2.60742e-05
2.60831e-05
2.60954e-05
2.61101e-05
2.61327e-05
2.61662e-05
2.62115e-05
2.62626e-05
2.63057e-05
2.63205e-05
2.6286e-05
2.62127e-05
2.61615e-05
2.61868e-05
2.60002e-05
2.60001e-05
2.60001e-05
2.60001e-05
2.60001e-05
2.60001e-05
2.60001e-05
2.60001e-05
2.60002e-05
2.60002e-05
2.60002e-05
2.60002e-05
2.60002e-05
2.60002e-05
2.60001e-05
2.60001e-05
2.60004e-05
2.60009e-05
2.60017e-05
2.60028e-05
2.60043e-05
2.60063e-05
2.6009e-05
2.60125e-05
2.60169e-05
2.60225e-05
2.60284e-05
2.60349e-05
2.60415e-05
2.60477e-05
2.6053e-05
2.60576e-05
2.60611e-05
2.6064e-05
2.60686e-05
2.60797e-05
2.60951e-05
2.61128e-05
2.61394e-05
2.61778e-05
2.62284e-05
2.62837e-05
2.63296e-05
2.63439e-05
2.63051e-05
2.6225e-05
2.61694e-05
2.62008e-05
2.60002e-05
2.60001e-05
2.60001e-05
2.60001e-05
2.60001e-05
2.60001e-05
2.60001e-05
2.60001e-05
2.60002e-05
2.60002e-05
2.60002e-05
2.60002e-05
2.60002e-05
2.60002e-05
2.60001e-05
2.60001e-05
2.60004e-05
2.60009e-05
2.60016e-05
2.60027e-05
2.60041e-05
2.6006e-05
2.60085e-05
2.60116e-05
2.60154e-05
2.602e-05
2.60249e-05
2.60303e-05
2.60362e-05
2.60421e-05
2.60474e-05
2.60518e-05
2.60553e-05
2.60584e-05
2.60637e-05
2.60774e-05
2.60962e-05
2.6117e-05
2.61478e-05
2.61912e-05
2.62465e-05
2.6306e-05
2.6354e-05
2.63669e-05
2.63237e-05
2.62378e-05
2.61795e-05
2.62187e-05
2.60002e-05
2.60001e-05
2.60001e-05
2.60001e-05
2.60001e-05
2.60001e-05
2.60001e-05
2.60001e-05
2.60002e-05
2.60002e-05
2.60002e-05
2.60002e-05
2.60002e-05
2.60002e-05
2.60001e-05
2.60001e-05
2.60004e-05
2.60008e-05
2.60015e-05
2.60026e-05
2.60039e-05
2.60057e-05
2.6008e-05
2.60107e-05
2.60139e-05
2.60177e-05
2.60216e-05
2.60262e-05
2.60318e-05
2.60375e-05
2.60425e-05
2.60468e-05
2.60503e-05
2.60533e-05
2.60596e-05
2.60763e-05
2.60984e-05
2.61227e-05
2.61579e-05
2.62059e-05
2.62656e-05
2.63287e-05
2.63781e-05
2.63888e-05
2.63409e-05
2.62502e-05
2.61919e-05
2.62414e-05
2.60002e-05
2.60001e-05
2.60001e-05
2.60001e-05
2.60001e-05
2.60001e-05
2.60001e-05
2.60001e-05
2.60002e-05
2.60002e-05
2.60002e-05
2.60002e-05
2.60003e-05
2.60002e-05
2.60002e-05
2.60001e-05
2.60003e-05
2.60008e-05
2.60015e-05
2.60024e-05
2.60037e-05
2.60054e-05
2.60074e-05
2.60097e-05
2.60124e-05
2.60154e-05
2.60186e-05
2.60228e-05
2.60282e-05
2.60336e-05
2.60384e-05
2.60425e-05
2.60457e-05
2.60489e-05
2.60564e-05
2.60761e-05
2.61019e-05
2.61298e-05
2.61692e-05
2.62215e-05
2.62852e-05
2.63512e-05
2.6401e-05
2.6409e-05
2.63561e-05
2.62615e-05
2.62062e-05
2.62688e-05
2.60002e-05
2.60001e-05
2.60001e-05
2.60001e-05
2.60001e-05
2.60001e-05
2.60001e-05
2.60001e-05
2.60002e-05
2.60002e-05
2.60002e-05
2.60002e-05
2.60003e-05
2.60002e-05
2.60002e-05
2.60001e-05
2.60003e-05
2.60007e-05
2.60014e-05
2.60023e-05
2.60035e-05
2.6005e-05
2.60068e-05
2.60088e-05
2.60109e-05
2.60133e-05
2.6016e-05
2.60201e-05
2.60252e-05
2.60304e-05
2.6035e-05
2.60388e-05
2.60419e-05
2.60453e-05
2.60539e-05
2.60768e-05
2.61066e-05
2.61381e-05
2.61813e-05
2.62375e-05
2.63048e-05
2.63728e-05
2.64222e-05
2.6427e-05
2.6369e-05
2.62716e-05
2.62222e-05
2.63007e-05
2.60002e-05
2.60001e-05
2.60001e-05
2.60001e-05
2.60001e-05
2.60001e-05
2.60001e-05
2.60002e-05
2.60002e-05
2.60002e-05
2.60002e-05
2.60003e-05
2.60003e-05
2.60003e-05
2.60002e-05
2.60001e-05
2.60003e-05
2.60007e-05
2.60013e-05
2.60022e-05
2.60033e-05
2.60046e-05
2.60062e-05
2.60079e-05
2.60095e-05
2.60114e-05
2.60139e-05
2.60179e-05
2.60228e-05
2.60278e-05
2.6032e-05
2.60356e-05
2.60387e-05
2.60424e-05
2.60521e-05
2.60783e-05
2.61122e-05
2.61471e-05
2.61938e-05
2.62536e-05
2.63235e-05
2.63928e-05
2.64412e-05
2.6442e-05
2.63789e-05
2.628e-05
2.62395e-05
2.63364e-05
2.60002e-05
2.60001e-05
2.60001e-05
2.60001e-05
2.60001e-05
2.60001e-05
2.60001e-05
2.60002e-05
2.60002e-05
2.60002e-05
2.60002e-05
2.60003e-05
2.60003e-05
2.60003e-05
2.60002e-05
2.60001e-05
2.60003e-05
2.60006e-05
2.60012e-05
2.6002e-05
2.6003e-05
2.60042e-05
2.60056e-05
2.6007e-05
2.60082e-05
2.60098e-05
2.60123e-05
2.60161e-05
2.60208e-05
2.60255e-05
2.60296e-05
2.60331e-05
2.60362e-05
2.604e-05
2.60509e-05
2.60806e-05
2.61183e-05
2.61563e-05
2.62063e-05
2.6269e-05
2.63408e-05
2.64106e-05
2.64574e-05
2.6454e-05
2.63855e-05
2.62863e-05
2.62576e-05
2.63756e-05
2.60002e-05
2.60001e-05
2.60001e-05
2.60001e-05
2.60001e-05
2.60001e-05
2.60001e-05
2.60002e-05
2.60002e-05
2.60002e-05
2.60002e-05
2.60003e-05
2.60003e-05
2.60003e-05
2.60002e-05
2.60001e-05
2.60002e-05
2.60006e-05
2.60011e-05
2.60018e-05
2.60028e-05
2.60038e-05
2.6005e-05
2.60061e-05
2.60071e-05
2.60085e-05
2.6011e-05
2.60147e-05
2.60191e-05
2.60237e-05
2.60277e-05
2.60311e-05
2.60342e-05
2.60383e-05
2.60504e-05
2.60833e-05
2.61246e-05
2.61654e-05
2.62182e-05
2.62831e-05
2.63561e-05
2.64259e-05
2.64706e-05
2.64627e-05
2.63889e-05
2.62901e-05
2.62766e-05
2.64183e-05
2.60002e-05
2.60001e-05
2.60001e-05
2.60001e-05
2.60001e-05
2.60001e-05
2.60001e-05
2.60002e-05
2.60002e-05
2.60002e-05
2.60002e-05
2.60003e-05
2.60003e-05
2.60003e-05
2.60002e-05
2.60001e-05
2.60002e-05
2.60005e-05
2.6001e-05
2.60017e-05
2.60025e-05
2.60034e-05
2.60044e-05
2.60053e-05
2.60061e-05
2.60076e-05
2.601e-05
2.60135e-05
2.60178e-05
2.60222e-05
2.60261e-05
2.60295e-05
2.60327e-05
2.60374e-05
2.60505e-05
2.60862e-05
2.61306e-05
2.6174e-05
2.62288e-05
2.62953e-05
2.6369e-05
2.64383e-05
2.64808e-05
2.64684e-05
2.63893e-05
2.62918e-05
2.62963e-05
2.6464e-05
2.60002e-05
2.60001e-05
2.60001e-05
2.60001e-05
2.60001e-05
2.60001e-05
2.60001e-05
2.60002e-05
2.60002e-05
2.60002e-05
2.60003e-05
2.60003e-05
2.60003e-05
2.60003e-05
2.60002e-05
2.60001e-05
2.60002e-05
2.60005e-05
2.60009e-05
2.60015e-05
2.60022e-05
2.6003e-05
2.60039e-05
2.60046e-05
2.60053e-05
2.60068e-05
2.60092e-05
2.60126e-05
2.60167e-05
2.6021e-05
2.60249e-05
2.60284e-05
2.6032e-05
2.60374e-05
2.60513e-05
2.60889e-05
2.61361e-05
2.61814e-05
2.62378e-05
2.63053e-05
2.63793e-05
2.64479e-05
2.6488e-05
2.64708e-05
2.63866e-05
2.62915e-05
2.6316e-05
2.65115e-05
2.60002e-05
2.60001e-05
2.60001e-05
2.60001e-05
2.60001e-05
2.60001e-05
2.60002e-05
2.60002e-05
2.60002e-05
2.60002e-05
2.60003e-05
2.60003e-05
2.60003e-05
2.60003e-05
2.60003e-05
2.60002e-05
2.60002e-05
2.60004e-05
2.60008e-05
2.60014e-05
2.6002e-05
2.60027e-05
2.60034e-05
2.6004e-05
2.60048e-05
2.60064e-05
2.60086e-05
2.60118e-05
2.60157e-05
2.602e-05
2.60241e-05
2.60279e-05
2.60321e-05
2.60382e-05
2.60526e-05
2.60914e-05
2.61406e-05
2.61871e-05
2.62446e-05
2.63128e-05
2.63868e-05
2.64547e-05
2.64922e-05
2.647e-05
2.6381e-05
2.62894e-05
2.63355e-05
2.65595e-05
2.60002e-05
2.60002e-05
2.60001e-05
2.60001e-05
2.60001e-05
2.60001e-05
2.60002e-05
2.60002e-05
2.60002e-05
2.60002e-05
2.60003e-05
2.60003e-05
2.60003e-05
2.60003e-05
2.60003e-05
2.60002e-05
2.60002e-05
2.60004e-05
2.60007e-05
2.60012e-05
2.60018e-05
2.60023e-05
2.60029e-05
2.60035e-05
2.60045e-05
2.60061e-05
2.60081e-05
2.60111e-05
2.6015e-05
2.60193e-05
2.60236e-05
2.60279e-05
2.60329e-05
2.60401e-05
2.60546e-05
2.60936e-05
2.61437e-05
2.61909e-05
2.62491e-05
2.63175e-05
2.63915e-05
2.64584e-05
2.6493e-05
2.64657e-05
2.63724e-05
2.62857e-05
2.63545e-05
2.66078e-05
2.60002e-05
2.60002e-05
2.60001e-05
2.60001e-05
2.60001e-05
2.60001e-05
2.60002e-05
2.60002e-05
2.60002e-05
2.60002e-05
2.60003e-05
2.60003e-05
2.60003e-05
2.60003e-05
2.60003e-05
2.60002e-05
2.60002e-05
2.60004e-05
2.60007e-05
2.60011e-05
2.60015e-05
2.6002e-05
2.60026e-05
2.60031e-05
2.60044e-05
2.60059e-05
2.60078e-05
2.60105e-05
2.60143e-05
2.60188e-05
2.60235e-05
2.60285e-05
2.60347e-05
2.60432e-05
2.60576e-05
2.60953e-05
2.61452e-05
2.61927e-05
2.6251e-05
2.63196e-05
2.63934e-05
2.64591e-05
2.64905e-05
2.64582e-05
2.63611e-05
2.62803e-05
2.63732e-05
2.6655e-05
2.60002e-05
2.60002e-05
2.60001e-05
2.60001e-05
2.60001e-05
2.60002e-05
2.60002e-05
2.60002e-05
2.60002e-05
2.60002e-05
2.60003e-05
2.60003e-05
2.60003e-05
2.60003e-05
2.60003e-05
2.60002e-05
2.60002e-05
2.60003e-05
2.60006e-05
2.60009e-05
2.60014e-05
2.60018e-05
2.60023e-05
2.6003e-05
2.60044e-05
2.60059e-05
2.60075e-05
2.60101e-05
2.60138e-05
2.60185e-05
2.60238e-05
2.60299e-05
2.60377e-05
2.6048e-05
2.60618e-05
2.60966e-05
2.61452e-05
2.61922e-05
2.62504e-05
2.63191e-05
2.63925e-05
2.64566e-05
2.64848e-05
2.64476e-05
2.63473e-05
2.62734e-05
2.6391e-05
2.66996e-05
2.60002e-05
2.60002e-05
2.60002e-05
2.60001e-05
2.60001e-05
2.60002e-05
2.60002e-05
2.60002e-05
2.60002e-05
2.60003e-05
2.60003e-05
2.60003e-05
2.60003e-05
2.60003e-05
2.60003e-05
2.60003e-05
2.60002e-05
2.60003e-05
2.60005e-05
2.60008e-05
2.60012e-05
2.60016e-05
2.60021e-05
2.6003e-05
2.60045e-05
2.60059e-05
2.60072e-05
2.60096e-05
2.60134e-05
2.60185e-05
2.60247e-05
2.60321e-05
2.60422e-05
2.6055e-05
2.60677e-05
2.60978e-05
2.61437e-05
2.61898e-05
2.62476e-05
2.6316e-05
2.63887e-05
2.64511e-05
2.6476e-05
2.64342e-05
2.63314e-05
2.62653e-05
2.64077e-05
2.67408e-05
2.60002e-05
2.60002e-05
2.60002e-05
2.60002e-05
2.60002e-05
2.60002e-05
2.60002e-05
2.60002e-05
2.60002e-05
2.60003e-05
2.60003e-05
2.60003e-05
2.60003e-05
2.60004e-05
2.60003e-05
2.60003e-05
2.60003e-05
2.60003e-05
2.60005e-05
2.60008e-05
2.60011e-05
2.60015e-05
2.60021e-05
2.60031e-05
2.60047e-05
2.60059e-05
2.6007e-05
2.60092e-05
2.60132e-05
2.60189e-05
2.60263e-05
2.60356e-05
2.60485e-05
2.60646e-05
2.60761e-05
2.60996e-05
2.61413e-05
2.61857e-05
2.62426e-05
2.63104e-05
2.6382e-05
2.64427e-05
2.64644e-05
2.64184e-05
2.63136e-05
2.62561e-05
2.64226e-05
2.67776e-05
2.60002e-05
2.60002e-05
2.60002e-05
2.60002e-05
2.60002e-05
2.60002e-05
2.60002e-05
2.60002e-05
2.60002e-05
2.60003e-05
2.60003e-05
2.60003e-05
2.60004e-05
2.60004e-05
2.60004e-05
2.60003e-05
2.60003e-05
2.60003e-05
2.60005e-05
2.60007e-05
2.6001e-05
2.60015e-05
2.60022e-05
2.60033e-05
2.6005e-05
2.6006e-05
2.60067e-05
2.60088e-05
2.60131e-05
2.60197e-05
2.60287e-05
2.60404e-05
2.60571e-05
2.60766e-05
2.60878e-05
2.61029e-05
2.61386e-05
2.61803e-05
2.62356e-05
2.63024e-05
2.63727e-05
2.64315e-05
2.64502e-05
2.64004e-05
2.62946e-05
2.62459e-05
2.64349e-05
2.68085e-05
2.60002e-05
2.60002e-05
2.60002e-05
2.60002e-05
2.60002e-05
2.60002e-05
2.60002e-05
2.60002e-05
2.60002e-05
2.60003e-05
2.60003e-05
2.60003e-05
2.60004e-05
2.60004e-05
2.60004e-05
2.60004e-05
2.60003e-05
2.60004e-05
2.60005e-05
2.60007e-05
2.6001e-05
2.60015e-05
2.60023e-05
2.60035e-05
2.60053e-05
2.60061e-05
2.60064e-05
2.60085e-05
2.60133e-05
2.60211e-05
2.60322e-05
2.60471e-05
2.60674e-05
2.60905e-05
2.61023e-05
2.61088e-05
2.61365e-05
2.61741e-05
2.6227e-05
2.62922e-05
2.6361e-05
2.64179e-05
2.64339e-05
2.6381e-05
2.62748e-05
2.62349e-05
2.6444e-05
2.68326e-05
2.60002e-05
2.60002e-05
2.60002e-05
2.60002e-05
2.60002e-05
2.60002e-05
2.60002e-05
2.60002e-05
2.60003e-05
2.60003e-05
2.60003e-05
2.60003e-05
2.60004e-05
2.60004e-05
2.60004e-05
2.60004e-05
2.60004e-05
2.60004e-05
2.60005e-05
2.60007e-05
2.60011e-05
2.60016e-05
2.60025e-05
2.60038e-05
2.60056e-05
2.60061e-05
2.60061e-05
2.60081e-05
2.60137e-05
2.60233e-05
2.6037e-05
2.60552e-05
2.6079e-05
2.61057e-05
2.61194e-05
2.61188e-05
2.61358e-05
2.61678e-05
2.62171e-05
2.62801e-05
2.63472e-05
2.64023e-05
2.64159e-05
2.63605e-05
2.62548e-05
2.62233e-05
2.64496e-05
2.68493e-05
2.60002e-05
2.60002e-05
2.60002e-05
2.60002e-05
2.60002e-05
2.60002e-05
2.60002e-05
2.60002e-05
2.60003e-05
2.60003e-05
2.60003e-05
2.60004e-05
2.60004e-05
2.60004e-05
2.60004e-05
2.60004e-05
2.60004e-05
2.60005e-05
2.60006e-05
2.60008e-05
2.60012e-05
2.60018e-05
2.60028e-05
2.60042e-05
2.60059e-05
2.60061e-05
2.60057e-05
2.60079e-05
2.60147e-05
2.60265e-05
2.60431e-05
2.60644e-05
2.60913e-05
2.61217e-05
2.61386e-05
2.61334e-05
2.6138e-05
2.61622e-05
2.62066e-05
2.62666e-05
2.63317e-05
2.6385e-05
2.63967e-05
2.63398e-05
2.62352e-05
2.62113e-05
2.6451e-05
2.68579e-05
2.60002e-05
2.60002e-05
2.60002e-05
2.60002e-05
2.60002e-05
2.60002e-05
2.60002e-05
2.60002e-05
2.60003e-05
2.60003e-05
2.60003e-05
2.60004e-05
2.60004e-05
2.60004e-05
2.60004e-05
2.60004e-05
2.60005e-05
2.60005e-05
2.60006e-05
2.60009e-05
2.60013e-05
2.6002e-05
2.60031e-05
2.60045e-05
2.60061e-05
2.6006e-05
2.60052e-05
2.60079e-05
2.60162e-05
2.60305e-05
2.60499e-05
2.60741e-05
2.61041e-05
2.61384e-05
2.61596e-05
2.61523e-05
2.61446e-05
2.61584e-05
2.61962e-05
2.62523e-05
2.6315e-05
2.63667e-05
2.6377e-05
2.63194e-05
2.62166e-05
2.61994e-05
2.6448e-05
2.68578e-05
2.60002e-05
2.60002e-05
2.60002e-05
2.60002e-05
2.60002e-05
2.60002e-05
2.60002e-05
2.60002e-05
2.60003e-05
2.60003e-05
2.60003e-05
2.60004e-05
2.60004e-05
2.60004e-05
2.60005e-05
2.60005e-05
2.60005e-05
2.60006e-05
2.60007e-05
2.6001e-05
2.60014e-05
2.60022e-05
2.60034e-05
2.60048e-05
2.60063e-05
2.60058e-05
2.60048e-05
2.60082e-05
2.60185e-05
2.60351e-05
2.60571e-05
2.60841e-05
2.6117e-05
2.61554e-05
2.61819e-05
2.61752e-05
2.61576e-05
2.6158e-05
2.6187e-05
2.62379e-05
2.62976e-05
2.63477e-05
2.63573e-05
2.62999e-05
2.61999e-05
2.61878e-05
2.64404e-05
2.68491e-05
2.60002e-05
2.60002e-05
2.60002e-05
2.60002e-05
2.60002e-05
2.60002e-05
2.60002e-05
2.60003e-05
2.60003e-05
2.60003e-05
2.60004e-05
2.60004e-05
2.60004e-05
2.60005e-05
2.60005e-05
2.60005e-05
2.60006e-05
2.60006e-05
2.60008e-05
2.60011e-05
2.60016e-05
2.60024e-05
2.60036e-05
2.60051e-05
2.60064e-05
2.60056e-05
2.60044e-05
2.60088e-05
2.6021e-05
2.60398e-05
2.60644e-05
2.60942e-05
2.61302e-05
2.61725e-05
2.62052e-05
2.62014e-05
2.61764e-05
2.61628e-05
2.61803e-05
2.62244e-05
2.62804e-05
2.63288e-05
2.63382e-05
2.62822e-05
2.61858e-05
2.61773e-05
2.64285e-05
2.68323e-05
2.60002e-05
2.60002e-05
2.60002e-05
2.60002e-05
2.60002e-05
2.60002e-05
2.60002e-05
2.60003e-05
2.60003e-05
2.60003e-05
2.60004e-05
2.60004e-05
2.60004e-05
2.60005e-05
2.60005e-05
2.60005e-05
2.60006e-05
2.60007e-05
2.60009e-05
2.60012e-05
2.60018e-05
2.60026e-05
2.60039e-05
2.60054e-05
2.60065e-05
2.60053e-05
2.6004e-05
2.60098e-05
2.60237e-05
2.60445e-05
2.60715e-05
2.61042e-05
2.61433e-05
2.61895e-05
2.62288e-05
2.62305e-05
2.62011e-05
2.6175e-05
2.61777e-05
2.62128e-05
2.62641e-05
2.63105e-05
2.63203e-05
2.62668e-05
2.6175e-05
2.61684e-05
2.64126e-05
2.68081e-05
2.60002e-05
2.60003e-05
2.60002e-05
2.60002e-05
2.60002e-05
2.60002e-05
2.60002e-05
2.60003e-05
2.60003e-05
2.60003e-05
2.60004e-05
2.60004e-05
2.60005e-05
2.60005e-05
2.60005e-05
2.60006e-05
2.60006e-05
2.60008e-05
2.6001e-05
2.60014e-05
2.6002e-05
2.60028e-05
2.60041e-05
2.60056e-05
2.60065e-05
2.6005e-05
2.60038e-05
2.60109e-05
2.60264e-05
2.60491e-05
2.60785e-05
2.6114e-05
2.61561e-05
2.62061e-05
2.62522e-05
2.62616e-05
2.62311e-05
2.61946e-05
2.61812e-05
2.62045e-05
2.62496e-05
2.62937e-05
2.63042e-05
2.62544e-05
2.61684e-05
2.61622e-05
2.63936e-05
2.67772e-05
2.60002e-05
2.60003e-05
2.60002e-05
2.60002e-05
2.60002e-05
2.60002e-05
2.60003e-05
2.60003e-05
2.60003e-05
2.60004e-05
2.60004e-05
2.60004e-05
2.60005e-05
2.60005e-05
2.60006e-05
2.60006e-05
2.60007e-05
2.60008e-05
2.60011e-05
2.60015e-05
2.60021e-05
2.6003e-05
2.60043e-05
2.60057e-05
2.60065e-05
2.60048e-05
2.60037e-05
2.60122e-05
2.6029e-05
2.60533e-05
2.6085e-05
2.61234e-05
2.61685e-05
2.62219e-05
2.62749e-05
2.62939e-05
2.62657e-05
2.62216e-05
2.61933e-05
2.62013e-05
2.62381e-05
2.62791e-05
2.62906e-05
2.62456e-05
2.61671e-05
2.61599e-05
2.63725e-05
2.67409e-05
2.60002e-05
2.60003e-05
2.60002e-05
2.60002e-05
2.60002e-05
2.60002e-05
2.60003e-05
2.60003e-05
2.60003e-05
2.60004e-05
2.60004e-05
2.60005e-05
2.60005e-05
2.60005e-05
2.60006e-05
2.60006e-05
2.60007e-05
2.60009e-05
2.60012e-05
2.60016e-05
2.60022e-05
2.60032e-05
2.60045e-05
2.60058e-05
2.60065e-05
2.60045e-05
2.60038e-05
2.60133e-05
2.60313e-05
2.60571e-05
2.6091e-05
2.61321e-05
2.61802e-05
2.62369e-05
2.62964e-05
2.63263e-05
2.6304e-05
2.62555e-05
2.62144e-05
2.62052e-05
2.6231e-05
2.62675e-05
2.62799e-05
2.62409e-05
2.61721e-05
2.61634e-05
2.63509e-05
2.67009e-05
2.60002e-05
2.60003e-05
2.60003e-05
2.60002e-05
2.60002e-05
2.60003e-05
2.60003e-05
2.60003e-05
2.60003e-05
2.60004e-05
2.60004e-05
2.60005e-05
2.60005e-05
2.60006e-05
2.60006e-05
2.60007e-05
2.60008e-05
2.6001e-05
2.60013e-05
2.60017e-05
2.60024e-05
2.60033e-05
2.60046e-05
2.60059e-05
2.60065e-05
2.60043e-05
2.60041e-05
2.60144e-05
2.60332e-05
2.60605e-05
2.60963e-05
2.614e-05
2.6191e-05
2.62509e-05
2.63164e-05
2.63579e-05
2.63447e-05
2.62951e-05
2.62444e-05
2.62189e-05
2.62301e-05
2.62602e-05
2.62731e-05
2.62409e-05
2.61852e-05
2.61785e-05
2.63307e-05
2.66588e-05
2.60002e-05
2.60003e-05
2.60003e-05
2.60002e-05
2.60002e-05
2.60003e-05
2.60003e-05
2.60003e-05
2.60004e-05
2.60004e-05
2.60004e-05
2.60005e-05
2.60005e-05
2.60006e-05
2.60006e-05
2.60007e-05
2.60008e-05
2.6001e-05
2.60013e-05
2.60018e-05
2.60025e-05
2.60035e-05
2.60047e-05
2.6006e-05
2.60064e-05
2.60041e-05
2.60044e-05
2.60153e-05
2.60349e-05
2.60633e-05
2.61008e-05
2.6147e-05
2.62009e-05
2.62637e-05
2.63344e-05
2.63877e-05
2.63866e-05
2.63399e-05
2.62826e-05
2.6243e-05
2.62376e-05
2.62584e-05
2.62709e-05
2.62464e-05
2.62094e-05
2.62037e-05
2.63141e-05
2.66168e-05
2.60002e-05
2.60003e-05
2.60003e-05
2.60003e-05
2.60003e-05
2.60003e-05
2.60003e-05
2.60003e-05
2.60004e-05
2.60004e-05
2.60005e-05
2.60005e-05
2.60006e-05
2.60006e-05
2.60007e-05
2.60008e-05
2.60009e-05
2.60011e-05
2.60014e-05
2.60019e-05
2.60026e-05
2.60036e-05
2.60048e-05
2.60061e-05
2.60064e-05
2.60041e-05
2.60048e-05
2.6016e-05
2.60361e-05
2.60654e-05
2.61045e-05
2.61529e-05
2.62096e-05
2.62752e-05
2.63503e-05
2.64148e-05
2.6428e-05
2.63881e-05
2.63274e-05
2.62771e-05
2.62563e-05
2.6264e-05
2.62745e-05
2.62581e-05
2.62393e-05
2.62366e-05
2.63036e-05
2.65765e-05
2.60002e-05
2.60003e-05
2.60003e-05
2.60003e-05
2.60003e-05
2.60003e-05
2.60003e-05
2.60003e-05
2.60004e-05
2.60004e-05
2.60005e-05
2.60005e-05
2.60006e-05
2.60007e-05
2.60007e-05
2.60008e-05
2.6001e-05
2.60012e-05
2.60015e-05
2.6002e-05
2.60027e-05
2.60037e-05
2.60049e-05
2.60062e-05
2.60064e-05
2.6004e-05
2.60051e-05
2.60165e-05
2.6037e-05
2.60669e-05
2.61072e-05
2.61577e-05
2.62171e-05
2.62852e-05
2.63641e-05
2.64387e-05
2.64677e-05
2.64384e-05
2.63784e-05
2.63204e-05
2.62858e-05
2.62794e-05
2.62858e-05
2.62777e-05
2.62779e-05
2.62789e-05
2.63024e-05
2.65399e-05
2.60002e-05
2.60003e-05
2.60003e-05
2.60003e-05
2.60003e-05
2.60003e-05
2.60003e-05
2.60004e-05
2.60004e-05
2.60005e-05
2.60005e-05
2.60006e-05
2.60006e-05
2.60007e-05
2.60008e-05
2.60009e-05
2.6001e-05
2.60012e-05
2.60016e-05
2.60021e-05
2.60028e-05