/*--------------------------------*- C++ -*----------------------------------*\
  =========                 |
  \\      /  F ield         | OpenFOAM: The Open Source CFD Toolbox
   \\    /   O peration     | Website:  https://openfoam.org
    \\  /    A nd           | Version:  10
     \\/     M anipulation  |
\*---------------------------------------------------------------------------*/
FoamFile
{
    format      ascii;
    class       volScalarField;
    location    "10";
    object      p;
}
// * * * * * * * * * * * * * * * * * * * * * * * * * * * * * * * * * * * * * //

dimensions      [0 2 -2 0 0 0 0];

internalField   nonuniform List<scalar> 
38016
(
1.30402
0.297606
0.465206
0.407622
0.37359
0.336625
0.296546
0.253057
0.207052
0.161157
0.120597
0.0945556
0.097354
0.148782
0.273403
0.498723
0.853642
1.36942
2.08584
3.06113
4.419
6.2388
9.16578
13.3156
19.1114
27.9124
39.6735
54.0463
70.0358
86.6378
102.921
118.252
132.319
145.077
156.665
167.337
177.401
187.151
196.796
206.479
216.255
226.122
236.069
246.125
256.432
266.928
277.219
291.807
1.3196
0.301241
0.470572
0.412138
0.377324
0.339491
0.29841
0.25375
0.206369
0.158851
0.116366
0.0880392
0.0881253
0.136344
0.257187
0.478079
0.827828
1.33762
2.04722
3.01504
4.36574
6.17916
9.10621
13.2679
19.0831
27.9591
39.8581
54.4394
70.7007
87.6277
104.278
120.013
134.518
147.749
159.848
171.067
181.712
192.065
202.324
212.613
222.972
233.384
243.826
254.328
265.008
275.757
286.467
301.42
1.33487
0.304579
0.475594
0.416284
0.380653
0.341915
0.299787
0.253905
0.205085
0.155867
0.111367
0.0806488
0.0778974
0.122765
0.239671
0.455963
0.800364
1.30398
2.00658
2.96675
4.3101
6.11704
9.04419
13.2179
19.0656
28.0237
40.0667
54.8607
71.3952
88.6466
105.662
121.796
136.734
150.435
163.044
174.814
186.047
197.018
207.912
218.833
229.801
240.784
251.743
262.697
273.73
284.716
295.904
310.995
1.35018
0.30801
0.480707
0.420542
0.384106
0.344477
0.30132
0.254235
0.204002
0.153112
0.106631
0.073561
0.068016
0.109578
0.222593
0.434326
0.773401
1.27083
1.96637
2.91868
4.25426
6.05383
8.97919
13.1606
19.0392
28.0679
40.2378
55.2228
72.0063
89.5572
106.914
123.426
138.78
152.938
166.047
178.362
190.181
201.768
213.289
224.828
236.38
247.888
259.293
270.597
281.848
292.945
304.388
319.256
1.36545
0.311435
0.48579
0.424775
0.387528
0.347004
0.302813
0.254518
0.202863
0.15029
0.101814
0.0663727
0.0580077
0.0962277
0.205301
0.412402
0.746049
1.23714
1.92537
2.86947
4.19669
5.98791
8.90986
13.0969
19.0007
28.0939
40.3815
55.5466
72.567
90.4053
108.092
124.972
140.733
155.34
168.943
181.797
194.193
206.378
218.5
230.609
242.671
254.602
266.318
277.8
289.07
300.057
311.385
325.636
1.3807
0.314878
0.490875
0.429022
0.390965
0.349549
0.304325
0.254823
0.201748
0.147495
0.0970256
0.0592132
0.0480261
0.0828965
0.188012
0.39045
0.718616
1.20328
1.88405
2.81965
4.13804
5.92009
8.83716
13.0273
18.9527
28.1031
40.498
55.8302
73.0734
91.1849
109.189
126.427
142.587
157.637
171.729
185.115
198.074
210.834
223.509
236.117
248.587
260.801
272.65
284.101
295.159
305.773
316.614
329.883
1.39592
0.318332
0.495955
0.433273
0.394405
0.352096
0.30584
0.255132
0.200637
0.144703
0.0922358
0.0520477
0.0380304
0.0695375
0.170671
0.368411
0.691037
1.16918
1.84232
2.76916
4.07825
5.85035
8.76116
12.9521
18.8956
28.0965
40.589
56.0763
73.5293
91.9015
110.212
127.799
144.353
159.842
174.419
188.327
201.828
215.122
228.288
241.298
254.042
266.37
278.156
289.354
299.97
309.962
320.025
332.043
1.4111
0.321799
0.501031
0.43753
0.39785
0.354649
0.307362
0.255447
0.199532
0.141917
0.0874508
0.0448822
0.0280268
0.0561564
0.153286
0.34629
0.663317
1.13484
1.80021
2.718
4.01732
5.77869
8.68183
12.8714
18.8291
28.0736
40.6533
56.2831
73.9321
92.5518
111.157
129.085
146.025
161.946
176.997
191.409
205.419
219.191
232.759
246.048
258.91
271.168
282.685
293.422
303.394
312.571
321.668
332.297
1.42626
0.325277
0.506102
0.441792
0.401301
0.357209
0.30889
0.25577
0.198436
0.139138
0.08267
0.0377149
0.0180121
0.0427488
0.135848
0.324076
0.635443
1.10025
1.75767
2.66613
3.95518
5.70494
8.59887
12.7843
18.7523
28.0324
40.6881
56.4467
74.2772
93.1305
112.019
130.278
147.594
163.937
179.446
194.332
208.803
222.977
236.838
250.265
263.074
275.075
286.135
296.237
305.417
313.663
321.713
330.947
1.44138
0.328766
0.511168
0.446061
0.404756
0.359774
0.310425
0.2561
0.197346
0.136365
0.0778933
0.0305453
0.00798403
0.0293102
0.118351
0.30176
0.607399
1.06538
1.71467
2.6135
3.89174
5.62897
8.51198
12.6905
18.6638
27.9712
40.6907
56.5635
74.5598
93.6315
112.79
131.367
149.05
165.799
181.741
197.063
211.929
226.411
240.44
253.851
266.436
278.009
288.459
297.801
306.108
313.387
320.399
328.331
1.45647
0.332267
0.516229
0.450335
0.408217
0.362346
0.311968
0.256438
0.196265
0.1336
0.0731208
0.023373
-0.00205977
0.0158358
0.100787
0.279329
0.579167
1.03021
1.6712
2.56007
3.82692
5.55062
8.42083
12.5891
18.5627
27.8879
40.6582
56.6294
74.7746
94.0485
113.462
132.344
150.377
167.512
183.856
199.56
214.744
229.426
243.486
256.726
268.93
279.933
289.664
298.181
305.597
311.937
317.987
324.763
1.47153
0.33578
0.521285
0.454616
0.411684
0.364925
0.313517
0.256784
0.195192
0.130842
0.0683522
0.0161973
-0.0121219
0.00231988
0.0831469
0.256769
0.550729
0.994714
1.62719
2.50577
3.76062
5.46969
8.32508
12.4796
18.4474
27.7806
40.5874
56.6401
74.9161
94.3744
114.026
133.197
151.561
169.055
185.757
201.78
217.192
231.955
245.906
258.83
270.521
280.852
289.803
297.482
304.04
309.517
314.716
320.503
1.48656
0.339304
0.526334
0.458903
0.415157
0.36751
0.315075
0.257139
0.194127
0.128091
0.0635872
0.00901708
-0.0222045
-0.0112437
0.0654189
0.234064
0.522059
0.958858
1.58262
2.45054
3.69273
5.38601
8.22433
12.3611
18.3165
27.6467
40.475
56.5908
74.9782
94.6015
114.472
133.913
152.584
170.402
187.413
203.68
219.218
233.938
247.647
260.127
271.205
280.804
288.961
295.831
301.599
306.312
310.782
315.744
1.50155
0.34284
0.531377
0.463197
0.418635
0.370103
0.316641
0.257502
0.193071
0.125347
0.0588253
0.00183094
-0.0323103
-0.0248611
0.0475915
0.211193
0.493131
0.922603
1.53743
2.3943
3.62312
5.29934
8.11817
12.2329
18.1686
27.4839
40.3173
56.4766
74.9541
94.721
114.79
134.477
153.426
171.527
188.785
205.212
220.769
235.325
248.67
260.605
271.004
279.85
287.236
293.356
298.42
302.476
306.336
310.62
1.5165
0.346388
0.536414
0.467498
0.422121
0.372704
0.318216
0.257875
0.192025
0.122611
0.0540663
-0.00536285
-0.0424428
-0.0385383
0.029652
0.188136
0.463913
0.885907
1.49156
2.33696
3.55165
5.20945
8.00612
12.0939
18.0019
27.2895
40.1103
56.292
74.8366
94.7237
114.967
134.873
154.065
172.399
189.835
206.332
221.798
236.075
248.953
260.271
269.961
278.065
284.728
290.173
294.625
298.127
301.485
305.215
1.53142
0.349946
0.541443
0.471806
0.425613
0.375312
0.319799
0.258257
0.190988
0.119883
0.0493093
-0.0125662
-0.0526062
-0.0522822
0.0115882
0.164872
0.434371
0.848719
1.44493
2.27843
3.47816
5.11606
7.88767
11.9432
17.8145
27.0606
39.8497
56.031
74.6178
94.5992
114.99
135.082
154.476
172.988
190.525
206.996
222.266
236.16
248.493
259.15
268.127
275.526
281.528
286.379
290.307
293.347
296.296
299.576
1.54629
0.353517
0.546465
0.476122
0.429111
0.377929
0.321392
0.25865
0.189961
0.117163
0.0445538
-0.0197812
-0.0628056
-0.0661021
-0.00661367
0.141376
0.404467
0.810984
1.39748
2.21858
3.40247
5.01886
7.76225
11.7798
17.6044
26.794
39.531
55.6871
74.289
94.3358
114.842
135.085
154.633
173.259
190.817
207.165
222.138
235.565
247.296
257.276
265.562
272.305
277.717
282.051
285.536
288.196
290.811
293.725
1.56113
0.357099
0.551478
0.480444
0.432617
0.380554
0.322995
0.259053
0.188944
0.11445
0.0397989
-0.0270104
-0.0730462
-0.0800083
-0.0249707
0.117626
0.374163
0.772642
1.3491
2.15729
3.32436
4.91752
7.62923
11.6023
17.3695
26.4863
39.149
55.2534
73.8408
93.9212
114.508
134.86
154.509
173.179
190.673
206.804
221.393
234.286
245.382
254.689
262.322
268.468
273.359
277.249
280.36
282.708
285.052
287.667
1.57593
0.360692
0.556483
0.484775
0.436131
0.383189
0.324608
0.259467
0.187937
0.111744
0.0350435
-0.0342565
-0.0833339
-0.0940122
-0.043503
0.0935886
0.343418
0.733634
1.29971
2.09441
3.24361
4.81165
7.48791
11.4094
17.1074
26.1337
38.6985
54.7223
73.2628
93.3417
113.97
134.383
154.074
172.714
190.058
205.885
220.014
232.326
242.776
251.433
258.458
264.068
268.503
272.013
274.812
276.904
279.029
281.398
1.59069
0.364296
0.561478
0.489113
0.439652
0.385832
0.326232
0.259892
0.186941
0.109045
0.0302864
-0.0415225
-0.0936753
-0.108126
-0.0622322
0.0692295
0.312178
0.693888
1.24921
2.02979
3.15997
4.70083
7.33753
11.1999
16.8156
25.7323
38.1733
54.0854
72.544
92.5824
113.208
133.63
153.298
171.832
188.941
204.385
217.996
229.698
239.507
247.547
254.017
259.15
263.188
266.375
268.912
270.794
272.74
274.907
1.6054
0.367912
0.566464
0.49346
0.443181
0.388486
0.327866
0.260329
0.185956
0.106354
0.0255263
-0.048812
-0.104078
-0.122364
-0.0811817
0.0445101
0.280383
0.653313
1.19747
1.96326
3.07317
4.58462
7.17726
10.972
16.4913
25.2778
37.5673
53.3338
71.6722
91.6273
112.202
132.575
152.152
170.501
187.296
202.288
215.337
226.418
235.606
243.07
249.035
253.746
257.441
260.352
262.669
264.38
266.179
268.179
1.62007
0.371538
0.571438
0.497816
0.446719
0.39115
0.329512
0.260778
0.184982
0.103668
0.0207616
-0.0561286
-0.114548
-0.136739
-0.100377
0.0193881
0.247966
0.611812
1.14436
1.89462
2.98292
4.46257
7.00625
10.7242
16.1316
24.7654
36.8734
52.458
70.6344
90.4593
110.929
131.191
150.605
168.692
185.1
199.584
212.043
222.507
231.102
238.034
243.545
247.884
251.281
253.957
256.089
257.659
259.339
261.199
1.63469
0.375176
0.576402
0.50218
0.450265
0.393824
0.331171
0.261239
0.184019
0.100989
0.0159906
-0.0634766
-0.125097
-0.15127
-0.119847
-0.00618287
0.214857
0.569275
1.0897
1.82363
2.88885
4.33415
6.82358
10.4547
15.7334
24.1901
36.0843
51.4474
69.4165
89.0601
109.366
129.452
148.628
166.378
182.333
196.268
208.124
217.986
226.022
232.466
237.571
241.581
244.72
247.196
249.171
250.625
252.207
253.951
1.64926
0.378825
0.581353
0.506553
0.45382
0.39651
0.332841
0.261713
0.183066
0.098315
0.0112114
-0.0708605
-0.135731
-0.165972
-0.139622
-0.0322539
0.180973
0.52558
1.03332
1.75001
2.79057
4.19877
6.6283
10.1617
15.2936
23.5466
35.192
50.2909
68.0036
87.4101
107.49
127.329
146.193
163.536
178.983
192.338
203.591
212.873
220.39
226.391
231.133
234.855
237.769
240.072
241.914
243.273
244.773
246.419
1.66378
0.382485
0.586291
0.510936
0.457384
0.399206
0.334524
0.2622
0.182125
0.0956457
0.00642192
-0.0782849
-0.146462
-0.180864
-0.159736
-0.058881
0.146225
0.480588
0.975007
1.67348
2.68762
4.05576
6.41933
9.84364
14.8089
22.8293
34.1879
48.9764
66.3795
85.489
105.276
124.795
143.274
160.144
175.038
187.797
198.456
207.189
214.225
219.826
224.246
227.715
230.435
232.591
234.32
235.601
237.033
238.595
1.67826
0.386156
0.591215
0.515329
0.460958
0.401915
0.33622
0.262701
0.181196
0.0929805
0.00161994
-0.0857552
-0.1573
-0.195967
-0.180223
-0.086125
0.110515
0.434147
0.914535
1.59367
2.57949
3.90437
6.19549
9.49854
14.2763
22.0324
33.0631
47.4911
64.5272
83.2752
102.699
121.823
139.846
156.185
170.493
182.647
192.73
200.947
207.544
212.786
216.921
220.171
222.725
224.757
226.393
227.613
228.991
230.483
1.69268
0.389838
0.596124
0.519732
0.464542
0.404635
0.33793
0.263215
0.180277
0.0903184
-0.0031969
-0.0932765
-0.168256
-0.211302
-0.201123
-0.114052
0.0737348
0.386087
0.851642
1.51022
2.4656
3.74378
5.95548
9.12448
13.6927
21.1503
31.8081
45.8215
62.4286
80.7463
99.7325
118.388
135.887
151.646
165.341
176.895
186.424
194.159
200.356
205.277
209.163
212.223
214.638
216.569
218.13
219.306
220.647
222.088
1.70704
0.393531
0.601017
0.524145
0.468137
0.407368
0.339654
0.263743
0.179369
0.0876587
-0.00803104
-0.100855
-0.179341
-0.226891
-0.222476
-0.142732
0.0357665
0.336218
0.786038
1.42268
2.34534
3.57308
5.69791
8.7194
13.0551
20.1774
30.4135
43.9534
60.065
77.8794
96.3514
114.463
131.376
146.512
159.581
170.542
179.544
186.833
192.665
197.3
200.967
203.865
206.162
208.01
209.513
210.659
211.974
213.377
1.72135
0.397234
0.605893
0.528568
0.471741
0.410115
0.341392
0.264285
0.178472
0.0850004
-0.0128849
-0.108495
-0.190567
-0.242756
-0.244324
-0.17224
-0.00351717
0.284336
0.717404
1.33058
2.21799
3.39125
5.42128
8.28113
12.3606
19.109
28.8701
41.8725
57.4168
74.6505
92.5297
110.026
126.294
140.775
153.209
163.591
172.093
178.969
184.471
188.85
192.324
195.081
197.278
199.057
200.512
201.637
202.934
204.307
1.7356
0.400948
0.610751
0.533003
0.475357
0.412874
0.343145
0.264842
0.177586
0.0823428
-0.017761
-0.116203
-0.201946
-0.258921
-0.266711
-0.202657
-0.0442533
0.230215
0.645383
1.23337
2.08276
3.19721
5.12398
7.80741
11.606
17.9406
27.1697
39.5645
54.464
71.0356
88.2419
105.052
120.626
134.425
146.222
156.041
164.071
170.565
175.767
179.916
183.22
185.853
187.964
189.686
191.103
192.214
193.497
194.846
1.74978
0.404674
0.615589
0.537449
0.478985
0.415648
0.344914
0.265413
0.176711
0.0796851
-0.0226618
-0.123985
-0.21349
-0.275411
-0.289685
-0.234066
-0.086588
0.173612
0.569592
1.13048
1.9388
2.98972
4.80428
7.296
10.7881
16.6678
25.3058
37.0166
51.1874
67.0106
83.4629
99.5201
114.355
127.452
138.615
147.891
155.474
161.613
166.541
170.484
173.636
176.161
178.198
179.872
181.258
182.36
183.636
184.967
1.76391
0.40841
0.620406
0.541908
0.482624
0.418436
0.346698
0.266
0.175847
0.0770264
-0.0275895
-0.131847
-0.225211
-0.292249
-0.31329
-0.266555
-0.130675
0.114268
0.489613
1.02126
1.78517
2.76748
4.46035
6.74459
9.90387
15.2863
23.2732
34.2186
47.5691
62.5529
78.1688
93.4094
107.466
119.847
130.383
139.132
146.294
152.103
156.78
160.535
163.551
165.981
167.955
169.588
170.948
172.047
173.319
174.636
1.77797
0.412157
0.625201
0.546378
0.486275
0.421239
0.348499
0.266603
0.174994
0.0743662
-0.0325463
-0.139792
-0.23712
-0.309459
-0.337576
-0.300212
-0.176677
0.0519062
0.404998
0.905032
1.62087
2.52908
4.09027
6.15086
8.95033
13.7914
21.0671
31.1642
43.5956
57.6423
72.3375
86.7003
99.9444
111.601
121.516
129.757
136.517
142.018
146.462
150.047
152.94
155.285
157.203
158.802
160.142
161.241
162.511
163.818
1.79196
0.415916
0.629972
0.550862
0.489939
0.424058
0.350317
0.267222
0.174152
0.071704
-0.037534
-0.147827
-0.249229
-0.327065
-0.362588
-0.33513
-0.224759
-0.0137614
0.315275
0.781053
1.44483
2.273
3.69202
5.51251
7.9248
12.1786
18.6822
27.8501
39.2596
52.2639
65.9502
79.3752
91.7771
102.702
112.004
119.751
126.128
131.338
135.566
138.992
141.773
144.041
145.91
147.479
148.803
149.904
151.175
152.473
1.80588
0.419687
0.634718
0.555358
0.493617
0.426893
0.352152
0.267858
0.173321
0.0690396
-0.0425542
-0.155955
-0.261546
-0.345088
-0.388374
-0.371398
-0.275093
-0.0830349
0.219948
0.648554
1.25592
1.99765
3.26353
4.82725
6.8248
10.4448
16.1135
24.2729
34.5602
46.4125
58.9947
71.4199
82.9506
93.138
101.834
109.1
115.108
120.04
124.063
127.34
130.017
132.214
134.038
135.581
136.89
137.994
139.266
140.557
1.81973
0.423469
0.639437
0.559869
0.497308
0.429745
0.354006
0.268511
0.172503
0.066373
-0.0476079
-0.16418
-0.274082
-0.36355
-0.414978
-0.40911
-0.32785
-0.156221
0.118507
0.506732
1.05295
1.70138
2.80267
4.09286
5.64806
8.58705
13.3567
20.4281
29.4998
40.0941
51.4696
62.8257
73.4536
82.8968
90.9921
97.786
103.433
108.097
111.922
115.057
117.634
119.765
121.546
123.063
124.358
125.465
126.739
128.023
1.8335
0.427263
0.644127
0.564394
0.501013
0.432614
0.355879
0.269182
0.171697
0.0637044
-0.052696
-0.172506
-0.286844
-0.38247
-0.442443
-0.448351
-0.383202
-0.233627
0.0104301
0.354764
0.834716
1.38248
2.30732
3.30723
4.39266
6.60362
10.4093
16.3121
24.0773
33.3164
43.3884
53.5939
63.2787
71.9665
79.4621
85.788
91.0796
95.4791
99.1109
102.107
104.586
106.65
108.389
109.881
111.161
112.269
113.543
114.82
1.84719
0.431071
0.648786
0.568934
0.504734
0.435502
0.357772
0.269873
0.170906
0.0610345
-0.0578183
-0.180932
-0.299839
-0.401864
-0.470807
-0.489208
-0.441316
-0.31556
-0.104802
0.191824
0.600009
1.03921
1.77538
2.46836
3.05697
4.49354
7.27099
11.9256
18.2942
26.0858
34.7709
43.7401
52.4264
60.3378
67.2289
73.086
78.0216
82.1567
85.5947
88.4509
90.8313
92.8278
94.5228
95.986
97.2493
98.3566
99.6277
100.894
1.8608
0.434892
0.653413
0.57349
0.508471
0.438409
0.359686
0.270584
0.170128
0.0583643
-0.0629745
-0.189462
-0.313072
-0.421746
-0.500107
-0.531758
-0.502349
-0.402316
-0.227699
0.0170942
0.347621
0.669889
1.20483
1.57445
1.6398
2.25678
3.94375
7.27235
12.1577
18.4114
25.6316
33.2907
40.9086
48.007
54.2794
59.6603
64.2338
68.0988
71.3381
74.05
76.3273
78.2522
79.8991
81.3305
82.573
83.6748
84.9393
86.1919
1.87433
0.438727
0.658005
0.578063
0.512225
0.441336
0.361623
0.271318
0.169368
0.0556954
-0.0681634
-0.198095
-0.326545
-0.442129
-0.530374
-0.576072
-0.566451
-0.494174
-0.358749
-0.170212
0.0763868
0.272849
0.593785
0.623914
0.140424
-0.105582
0.431225
2.35754
5.67681
10.3054
15.9803
22.2691
28.7479
34.979
40.6049
45.494
49.6927
53.2764
56.3074
58.8664
61.0332
62.8795
64.472
65.8656
67.0817
68.1723
69.4252
70.6592
1.88777
0.442578
0.662561
0.582654
0.515997
0.444285
0.363584
0.272074
0.168625
0.0530295
-0.073383
-0.206829
-0.340261
-0.46302
-0.561631
-0.622213
-0.633754
-0.591393
-0.498407
-0.370833
-0.21479
-0.153458
-0.0594369
-0.384506
-1.44137
-2.5912
-3.26041
-2.80876
-1.13386
1.79062
5.83782
10.6908
15.9667
21.2681
26.2041
30.5747
34.3783
37.6635
40.4714
42.8647
44.9098
46.6679
48.1972
49.545
50.7275
51.7994
53.0342
54.2433
1.90113
0.446445
0.667078
0.587263
0.519787
0.447258
0.365571
0.272856
0.167903
0.0503693
-0.0786308
-0.215662
-0.354217
-0.484423
-0.593897
-0.67023
-0.704372
-0.6942
-0.647079
-0.585436
-0.526902
-0.61043
-0.75627
-1.45173
-3.10515
-5.19637
-7.12263
-8.21131
-8.25301
-7.10497
-4.76617
-1.42494
2.584
6.89124
11.0831
14.8965
18.276
21.2388
23.8033
26.0137
27.9223
29.5793
31.034
32.3258
33.4655
34.51
35.7187
36.8953
1.91438
0.45033
0.671553
0.591892
0.523598
0.450254
0.367585
0.273666
0.167203
0.0477175
-0.0839033
-0.224591
-0.368411
-0.50634
-0.627185
-0.720161
-0.778397
-0.802783
-0.805112
-0.814597
-0.860812
-1.09926
-1.49782
-2.57823
-4.84982
-7.91597
-11.1444
-13.8314
-15.6569
-16.3528
-15.7978
-14.0493
-11.3764
-8.13385
-4.7467
-1.53934
1.37817
3.98744
6.28247
8.28793
10.0414
11.5812
12.9473
14.1708
15.2565
16.2629
17.4363
18.5713
1.92755
0.454233
0.675985
0.596542
0.527431
0.453277
0.369628
0.274505
0.166529
0.0450778
-0.0891963
-0.23361
-0.382838
-0.528766
-0.661498
-0.77203
-0.855894
-0.917287
-0.972779
-1.05878
-1.21721
-1.62089
-2.28479
-3.76398
-6.67344
-10.7433
-15.3121
-19.6467
-23.3181
-25.9203
-27.2125
-27.1378
-25.8804
-23.7816
-21.2685
-18.7241
-16.3151
-14.0975
-12.1038
-10.3301
-8.75467
-7.35157
-6.09089
-4.95041
-3.93159
-2.97572
-1.84833
-0.765594
1.94061
0.458158
0.680371
0.601214
0.531287
0.456328
0.371703
0.275378
0.165884
0.0424542
-0.0945047
-0.242713
-0.39749
-0.551693
-0.69683
-0.825844
-0.9369
-1.0378
-1.15027
-1.3183
-1.59658
-2.17594
-3.11743
-5.00835
-8.57317
-13.6699
-19.609
-25.6301
-31.1985
-35.7627
-38.9596
-40.6365
-40.8835
-40.0145
-38.4543
-36.639
-34.7932
-33.0125
-31.3579
-29.848
-28.4775
-27.234
-26.0984
-25.058
-24.1213
-23.23
-22.1608
-21.1424
1.95356
0.462106
0.684708
0.60591
0.535168
0.459409
0.373812
0.276286
0.165273
0.0398514
-0.0998228
-0.251892
-0.412357
-0.57511
-0.73317
-0.881592
-1.02142
-1.16437
-1.33767
-1.59333
-1.99918
-2.76465
-3.99545
-6.31004
-10.5452
-16.6857
-24.0159
-31.7514
-39.2544
-45.8289
-50.9869
-54.489
-56.3328
-56.7839
-56.263
-55.2518
-54.0323
-52.7412
-51.4696
-50.2604
-49.1262
-48.0688
-47.081
-46.1601
-45.3225
-44.5116
-43.5144
-42.5737
1.96641
0.466078
0.688994
0.61063
0.539076
0.462522
0.375959
0.277233
0.164698
0.0372746
-0.105144
-0.26114
-0.427428
-0.599
-0.770495
-0.939248
-1.10941
-1.29695
-1.53496
-1.88388
-2.42499
-3.38687
-4.91798
-7.66699
-12.5844
-19.7789
-28.5108
-37.9762
-47.4399
-56.0701
-63.2408
-68.6294
-72.1611
-74.0271
-74.6396
-74.5155
-73.993
-73.251
-72.4125
-71.5463
-70.6839
-69.8428
-69.0283
-68.249
-67.5298
-66.8169
-65.9067
-65.0588
1.97914
0.470079
0.693226
0.615377
0.543013
0.465671
0.378145
0.278224
0.164165
0.0347297
-0.11046
-0.270446
-0.442689
-0.623343
-0.808774
-0.998765
-1.20082
-1.43546
-1.74201
-2.18973
-2.8737
-4.04198
-5.88352
-9.07631
-14.6848
-22.9356
-33.0691
-44.2669
-55.7031
-66.4223
-75.6512
-82.9795
-88.2793
-91.6616
-93.5114
-94.3646
-94.6167
-94.4897
-94.1403
-93.6643
-93.1138
-92.5228
-91.9104
-91.297
-90.7176
-90.1222
-89.3153
-88.5768
1.99176
0.474111
0.6974
0.620153
0.546981
0.468857
0.380376
0.279262
0.163679
0.0322232
-0.115764
-0.279798
-0.458122
-0.648112
-0.847966
-1.06008
-1.29554
-1.57972
-1.95856
-2.51051
-3.34469
-4.72884
-6.88985
-10.5342
-16.8387
-26.1403
-37.6639
-50.5825
-63.9895
-76.8136
-88.138
-97.4555
-104.592
-109.59
-112.784
-114.711
-115.821
-116.381
-116.582
-116.548
-116.354
-116.05
-115.672
-115.251
-114.835
-114.378
-113.692
-113.081
2.00425
0.478177
0.701513
0.624959
0.550983
0.472083
0.382654
0.280352
0.163246
0.0297622
-0.121045
-0.289184
-0.47371
-0.67328
-0.888022
-1.1231
-1.39342
-1.7295
-2.18423
-2.8456
-3.83699
-5.44581
-7.9341
-12.036
-19.0373
-29.3758
-42.2661
-56.8797
-72.2406
-87.1726
-100.629
-111.979
-120.999
-127.702
-132.344
-135.441
-137.497
-138.819
-139.635
-140.1
-140.31
-140.335
-140.225
-140.026
-139.798
-139.503
-138.957
-138.492
2.01662
0.482281
0.705563
0.629797
0.555022
0.475354
0.384983
0.2815
0.162871
0.0273544
-0.126294
-0.29859
-0.489433
-0.698811
-0.928884
-1.18773
-1.49428
-1.88448
-2.4185
-3.19417
-4.3493
-6.19072
-9.0126
-13.5758
-21.2704
-32.6232
-46.8449
-63.1132
-80.3958
-97.4232
-113.031
-126.451
-137.397
-145.871
-152.049
-156.414
-159.501
-161.663
-163.162
-164.184
-164.849
-165.245
-165.441
-165.496
-165.483
-165.373
-164.988
-164.688
2.02886
0.486428
0.709546
0.634669
0.559101
0.478672
0.387368
0.282709
0.162563
0.0250083
-0.131501
-0.308002
-0.505266
-0.724669
-0.970484
-1.25384
-1.59791
-2.04429
-2.66075
-3.55521
-4.87995
-6.96083
-10.121
-15.1471
-23.5264
-35.8622
-51.3682
-69.2365
-88.3928
-107.488
-125.247
-140.769
-153.678
-163.956
-171.74
-177.46
-181.661
-184.737
-186.984
-188.62
-189.79
-190.602
-191.14
-191.481
-191.71
-191.811
-191.606
-191.494
2.04096
0.490623
0.713459
0.639577
0.563222
0.482042
0.389814
0.283987
0.162327
0.0227327
-0.136652
-0.317403
-0.521187
-0.750812
-1.01275
-1.3213
-1.70404
-2.20848
-2.9102
-3.92745
-5.42695
-7.75289
-11.2542
-16.7421
-25.7926
-39.0714
-55.8031
-75.2027
-96.1693
-117.289
-137.183
-154.83
-169.728
-181.822
-191.253
-198.393
-203.773
-207.825
-210.876
-213.178
-214.9
-216.168
-217.085
-217.741
-218.239
-218.574
-218.569
-218.663
2.05291
0.494871
0.717297
0.644524
0.56739
0.485467
0.392326
0.28534
0.162171
0.0205375
-0.141737
-0.326776
-0.537167
-0.777195
-1.05559
-1.38995
-1.81239
-2.37654
-3.16599
-4.30945
-5.98796
-8.56315
-12.4066
-18.3522
-28.0551
-42.2284
-60.1163
-80.9651
-103.663
-126.749
-148.749
-168.522
-185.432
-199.352
-210.434
-219.025
-225.621
-230.686
-234.578
-237.582
-239.888
-241.644
-242.967
-243.964
-244.753
-245.342
-245.553
-245.871
2.06472
0.499179
0.721058
0.649512
0.571608
0.488951
0.394909
0.286774
0.162105
0.018433
-0.146742
-0.336103
-0.553179
-0.803767
-1.09892
-1.45962
-1.92264
-2.54788
-3.42711
-4.69958
-6.56034
-9.3874
-13.5716
-19.9679
-30.299
-45.3106
-64.2753
-86.4786
-110.815
-135.791
-159.854
-181.741
-200.685
-216.444
-229.163
-239.187
-246.995
-253.075
-257.812
-261.522
-264.423
-266.677
-268.419
-269.768
-270.859
-271.713
-272.15
-272.702
2.07636
0.503554
0.724737
0.654543
0.57588
0.492501
0.397569
0.288297
0.162137
0.0164303
-0.151651
-0.345363
-0.569192
-0.830477
-1.14265
-1.53011
-2.03444
-2.72189
-3.6925
-5.09603
-7.14117
-10.221
-14.7424
-21.5791
-32.5091
-48.2955
-68.2483
-91.7001
-117.568
-144.345
-170.411
-194.391
-215.383
-233.021
-247.373
-258.779
-267.75
-274.8
-280.339
-284.717
-288.178
-290.906
-293.046
-294.734
-296.117
-297.229
-297.884
-298.667
2.08784
0.508004
0.72833
0.659619
0.580211
0.49612
0.400313
0.289916
0.162275
0.0145412
-0.156451
-0.354536
-0.585172
-0.857267
-1.18665
-1.60124
-2.14742
-2.89788
-3.96098
-5.49684
-7.72728
-11.059
-15.9117
-23.1752
-34.6694
-51.1608
-72.0054
-96.5897
-123.868
-152.341
-180.338
-206.38
-229.428
-248.991
-265.026
-277.803
-287.873
-295.811
-302.064
-307.021
-310.959
-314.083
-316.556
-318.523
-320.149
-321.479
-322.314
-323.297
2.09915
0.512537
0.731835
0.664744
0.584605
0.499814
0.403147
0.291639
0.162531
0.0127782
-0.161124
-0.363597
-0.601085
-0.884076
-1.23084
-1.67278
-2.26119
-3.07515
-4.2313
-5.89994
-8.31534
-11.8961
-17.072
-24.7452
-36.7644
-53.8856
-75.5192
-101.111
-129.67
-159.719
-189.559
-217.619
-242.729
-264.257
-282.058
-296.304
-307.503
-316.278
-323.163
-328.601
-332.909
-336.322
-339.02
-341.168
-342.943
-344.404
-345.338
-346.446
2.11028
0.517164
0.735245
0.66992
0.589067
0.503588
0.406078
0.293476
0.162915
0.0111548
-0.165653
-0.372524
-0.616893
-0.910842
-1.27507
-1.74453
-2.37532
-3.25295
-4.50218
-6.30317
-8.90184
-12.7271
-18.2153
-26.2781
-38.7787
-56.4502
-78.7655
-105.234
-134.93
-166.423
-198.003
-228.024
-255.191
-278.732
-298.384
-314.248
-326.746
-336.479
-344.053
-349.975
-354.63
-358.292
-361.169
-363.444
-365.309
-366.838
-367.8
-368.961
2.12122
0.521895
0.738559
0.675148
0.593602
0.507449
0.409113
0.295435
0.163439
0.00968544
-0.170019
-0.38129
-0.632556
-0.937495
-1.31924
-1.81623
-2.48939
-3.43052
-4.77229
-6.70431
-9.48324
-13.5464
-19.3339
-27.7629
-40.6976
-58.837
-81.7232
-108.932
-139.616
-172.406
-205.607
-237.515
-266.723
-292.316
-313.905
-331.528
-345.528
-356.452
-364.931
-371.537
-376.72
-380.798
-384.006
-386.543
-388.624
-390.338
-391.438
-392.761
2.13195
0.526743
0.741771
0.680433
0.598216
0.511404
0.412261
0.297527
0.164114
0.0083855
-0.174203
-0.389867
-0.648031
-0.963962
-1.36321
-1.88767
-2.60297
-3.60705
-5.04026
-7.10109
-10.0559
-14.3486
-20.42
-29.1891
-42.5076
-61.0306
-84.3753
-112.186
-143.7
-177.631
-212.315
-246.018
-277.232
-304.903
-328.511
-348.019
-363.683
-375.983
-385.568
-393.058
-398.952
-403.611
-407.298
-410.235
-412.659
-414.679
-416.036
-417.641
2.14248
0.531721
0.744878
0.685776
0.602915
0.515458
0.41553
0.299761
0.164955
0.00727172
-0.178182
-0.398224
-0.663269
-0.990166
-1.40684
-1.95857
-2.71559
-3.78175
-5.30472
-7.49126
-10.6163
-15.1283
-21.4663
-30.5465
-44.1961
-63.0176
-86.7084
-114.98
-147.163
-182.066
-218.082
-253.466
-286.63
-316.386
-342.081
-363.572
-381.029
-394.855
-405.676
-414.149
-420.828
-426.122
-430.331
-433.7
-436.488
-438.832
-440.455
-442.349
2.15277
0.536844
0.747877
0.69118
0.607705
0.51962
0.418929
0.30215
0.165974
0.00636199
-0.181933
-0.406326
-0.678221
-1.01602
-1.44998
-2.02869
-2.82679
-3.95383
-5.5643
-7.87258
-11.161
-15.8804
-22.4655
-31.8256
-45.7519
-64.7872
-88.7126
-117.304
-149.993
-185.692
-222.871
-259.802
-294.834
-326.658
-354.481
-378.023
-397.375
-412.875
-425.08
-434.649
-442.194
-448.183
-452.959
-456.795
-459.974
-462.669
-464.579
-466.787
2.16283
0.542127
0.750764
0.696647
0.612592
0.523897
0.422468
0.304704
0.167186
0.00567407
-0.185431
-0.414143
-0.692837
-1.04145
-1.49251
-2.09778
-2.93615
-4.12253
-5.81777
-8.24301
-11.6866
-16.6001
-23.4112
-33.0181
-47.1655
-66.3313
-90.3824
-119.156
-152.185
-188.496
-226.659
-264.981
-301.774
-335.622
-365.585
-391.223
-412.561
-429.884
-443.631
-454.426
-462.937
-469.694
-475.093
-479.44
-483.047
-486.129
-488.355
-490.907
2.17263
0.547587
0.753536
0.702179
0.617583
0.528295
0.426154
0.307434
0.168605
0.00522439
-0.188656
-0.421643
-0.707075
-1.06638
-1.5343
-2.16564
-3.04332
-4.28723
-6.06405
-8.60083
-12.1906
-17.2836
-24.2981
-34.1175
-48.4303
-67.6454
-91.7164
-120.538
-153.741
-190.478
-229.429
-268.966
-307.388
-343.187
-375.275
-403.061
-426.476
-445.741
-461.185
-473.367
-482.971
-490.598
-496.699
-501.623
-505.71
-509.227
-511.811
-514.745
2.18217
0.553244
0.756191
0.707778
0.622686
0.532825
0.43
0.310354
0.170247
0.00503523
-0.19158
-0.42879
-0.720877
-1.09073
-1.5752
-2.23202
-3.14787
-4.44725
-6.30204
-8.94426
-12.6703
-17.9271
-25.1214
-35.1178
-49.5405
-68.7267
-92.7161
-121.454
-154.67
-191.642
-231.177
-271.734
-311.625
-349.274
-383.454
-413.429
-438.986
-460.272
-477.562
-491.313
-502.171
-510.793
-517.696
-523.279
-527.91
-531.922
-534.913
-538.277
2.19141
0.559118
0.758726
0.713448
0.627908
0.537496
0.434017
0.313479
0.172131
0.00512854
-0.194172
-0.435542
-0.734186
-1.11441
-1.61508
-2.2967
-3.24942
-4.60192
-6.53063
-9.27159
-13.1231
-18.527
-25.8766
-36.014
-50.4923
-69.5754
-93.3876
-121.919
-154.99
-192.009
-231.917
-273.283
-314.46
-353.826
-390.037
-422.207
-449.947
-473.315
-492.577
-508.089
-520.395
-530.17
-538.001
-544.345
-549.602
-554.184
-557.642
-561.492
2.20035
0.565233
0.761143
0.719189
0.633258
0.542317
0.438216
0.316823
0.174274
0.00552739
-0.196404
-0.441859
-0.746942
-1.13732
-1.65379
-2.35941
-3.34754
-4.75059
-6.74879
-9.58122
-13.5467
-19.0802
-26.5599
-36.8022
-51.2836
-70.1943
-93.7405
-121.949
-154.728
-191.609
-231.678
-273.628
-315.883
-356.804
-394.949
-429.279
-459.234
-484.756
-506.082
-523.508
-537.467
-548.588
-557.505
-564.74
-570.729
-575.971
-579.974
-584.381
2.20896
0.571612
0.763439
0.725004
0.638745
0.547299
0.442611
0.320402
0.176696
0.00625639
-0.198242
-0.447696
-0.759081
-1.15936
-1.69117
-2.41992
-3.44187
-4.89263
-6.95558
-9.87177
-13.9392
-19.5844
-27.1686
-37.48
-51.9142
-70.5886
-93.7873
-121.567
-153.914
-190.481
-230.498
-272.801
-315.906
-358.19
-398.137
-434.566
-466.756
-494.494
-517.94
-537.383
-553.184
-565.869
-576.068
-584.357
-591.211
-597.232
-601.879
-606.933
2.21722
0.578281
0.765617
0.730894
0.644377
0.552452
0.447215
0.324232
0.179417
0.0073417
-0.199653
-0.453007
-0.770538
-1.18045
-1.72708
-2.478
-3.53203
-5.0275
-7.15014
-10.142
-14.2989
-20.0374
-27.7007
-38.0461
-52.3858
-70.7653
-93.5433
-120.798
-152.586
-188.672
-228.43
-270.849
-314.561
-357.989
-399.572
-438.009
-472.421
-502.41
-528.025
-549.559
-567.337
-581.794
-593.499
-603.046
-610.938
-617.886
-623.304
-629.122
2.22511
0.585268
0.767678
0.736862
0.650165
0.557789
0.452042
0.328332
0.182461
0.00881117
-0.200601
-0.457744
-0.781243
-1.20048
-1.76136
-2.53341
-3.61767
-5.15465
-7.33172
-10.3909
-14.6245
-20.4378
-28.155