/*--------------------------------*- C++ -*----------------------------------*\
  =========                 |
  \\      /  F ield         | OpenFOAM: The Open Source CFD Toolbox
   \\    /   O peration     | Website:  https://openfoam.org
    \\  /    A nd           | Version:  10
     \\/     M anipulation  |
\*---------------------------------------------------------------------------*/
FoamFile
{
    format      ascii;
    class       surfaceScalarField;
    location    "10";
    object      phi;
}
// * * * * * * * * * * * * * * * * * * * * * * * * * * * * * * * * * * * * * //

dimensions      [0 3 -1 0 0 0 0];

internalField   nonuniform List<scalar> 
75600
(
0.00963448
-1236.81
1236.81
0.0055192
-1023.94
1023.95
0.0019852
-847.773
847.777
-0.000946434
-701.938
701.941
-0.00338667
-581.227
581.229
-0.00541109
-481.319
481.321
-0.00709075
-398.638
398.639
-0.00848491
-330.225
330.226
-0.00963776
-273.631
273.632
-0.0105919
-226.83
226.831
-0.0113801
-188.147
188.148
-0.0120293
-156.198
156.199
-0.0125622
-129.838
129.839
-0.0129972
-108.124
108.125
-0.0133485
-90.2787
90.2791
-0.0136279
-75.663
75.6633
-0.0138443
-63.7538
63.754
-0.0140039
-54.1248
54.125
-0.0141097
-46.4316
46.4317
-0.0141608
-40.3987
40.3987
-0.0141522
-35.81
35.81
-0.0140675
-32.5006
32.5005
-0.013885
-30.3509
30.3507
-0.0135643
-29.2816
29.2813
-0.0130386
-29.1452
29.1446
-0.0124105
-23.222
23.2214
-0.0117267
-18.496
18.4953
-0.0110426
-14.728
14.7273
-0.0103957
-11.7257
11.725
-0.00980585
-9.33499
9.3344
-0.00927805
-7.43231
7.43178
-0.00880959
-5.91856
5.91809
-0.00839676
-4.71449
4.71407
-0.00803785
-3.75682
3.75646
-0.00773374
-2.99514
2.99483
-0.00748696
-2.38937
2.38913
-0.00729956
-1.90771
1.90752
-0.00717172
-1.52493
1.5248
-0.00710163
-1.22107
1.221
-0.00708526
-0.980348
0.980331
-0.0071167
-0.79031
0.790342
-0.00718867
-0.641157
0.641229
-0.00729273
-0.525203
0.525307
-0.00742112
-0.436468
0.436596
-0.00757264
-0.370342
0.370493
-0.00774042
-0.323368
0.323536
-0.00787833
-0.293174
0.293312
-0.277801
0.277892
-0.00797013
0.0345677
-1236.8
0.0258086
-1023.94
0.0184178
-847.766
0.0122904
-701.932
0.00719912
-581.222
0.00297634
-481.314
-0.000526564
-398.634
-0.00342745
-330.222
-0.00583345
-273.628
-0.00782608
-226.828
-0.00947594
-188.146
-0.0108414
-156.197
-0.01197
-129.837
-0.0129011
-108.123
-0.0136672
-90.278
-0.0142945
-75.6624
-0.0148038
-63.7532
-0.0152118
-54.1244
-0.0155293
-46.4313
-0.0157626
-40.3985
-0.0159106
-35.8098
-0.0159601
-32.5005
-0.015888
-30.3509
-0.0156392
-29.2818
-0.0151229
-29.1457
-0.0144222
-23.2227
-0.0135884
-18.4968
-0.0126921
-14.7289
-0.0117881
-11.7266
-0.010914
-9.33586
-0.0100903
-7.43313
-0.00932728
-5.91932
-0.008632
-4.71518
-0.00801203
-3.75744
-0.00747608
-2.99567
-0.00703294
-2.38982
-0.00668849
-1.90805
-0.00644368
-1.52518
-0.00629515
-1.22122
-0.0062351
-0.980408
-0.00625226
-0.790293
-0.00633301
-0.641077
-0.00646255
-0.525074
-0.00662804
-0.436303
-0.00682274
-0.370147
-0.00702927
-0.323162
-0.00722253
-0.292981
-0.277636
-0.00738689
0.0590387
-1236.78
0.0451259
-1023.92
0.0334651
-847.754
0.0238003
-701.923
0.0157839
-581.214
0.00913549
-481.308
0.00362602
-398.629
-0.000942914
-330.217
-0.00472707
-273.625
-0.00786448
-226.825
-0.010465
-188.143
-0.0126205
-156.195
-0.0144073
-129.835
-0.0158879
-108.122
-0.0171141
-90.2768
-0.0181285
-75.6613
-0.018966
-63.7524
-0.0196534
-54.1237
-0.0202119
-46.4307
-0.0206541
-40.398
-0.0209838
-35.8095
-0.0211899
-32.5003
-0.0212452
-30.3509
-0.0210792
-29.282
-0.020562
-29.1462
-0.019743
-23.2235
-0.0186832
-18.4979
-0.0174738
-14.7301
-0.0161948
-11.7279
-0.0149095
-9.33715
-0.0136606
-7.43438
-0.0124772
-5.92051
-0.0113812
-4.71628
-0.0103928
-3.75842
-0.00953055
-2.99654
-0.00881065
-2.39054
-0.00824263
-1.90862
-0.00782678
-1.52559
-0.00755595
-1.22149
-0.00741582
-0.980548
-0.00738674
-0.790322
-0.00744594
-0.641017
-0.00756991
-0.52495
-0.00773884
-0.436134
-0.00793557
-0.36995
-0.00813128
-0.322966
-0.00833445
-0.292777
-0.277441
-0.00852937
0.0836767
-1236.76
0.0645364
-1023.9
0.0485559
-847.738
0.035323
-701.909
0.0243521
-581.203
0.0152635
-481.299
0.00773136
-398.621
0.00149292
-330.211
-0.00367993
-273.619
-0.00796709
-226.821
-0.0115224
-188.14
-0.0144722
-156.192
-0.016921
-129.833
-0.0189556
-108.12
-0.0206473
-90.2751
-0.0220554
-75.6599
-0.0232282
-63.7512
-0.0242048
-54.1228
-0.0250153
-46.4299
-0.0256799
-40.3973
-0.026208
-35.809
-0.0265896
-32.4999
-0.0267951
-30.3507
-0.026738
-29.2821
-0.0262474
-29.1467
-0.025326
-23.2244
-0.0240464
-18.4992
-0.0225238
-14.7316
-0.0208662
-11.7295
-0.0191652
-9.33885
-0.0174889
-7.43606
-0.0158861
-5.92211
-0.0143951
-4.71777
-0.013048
-3.75977
-0.0118728
-2.99771
-0.0108913
-2.39152
-0.0101145
-1.9094
-0.0095393
-1.52617
-0.00915228
-1.22188
-0.0089304
-0.98077
-0.00884408
-0.790409
-0.00886066
-0.641001
-0.00894807
-0.524862
-0.00907905
-0.436003
-0.00922677
-0.369802
-0.0093635
-0.322829
-0.00950829
-0.292633
-0.277313
-0.00963673
0.108761
-1236.73
0.084461
-1023.88
0.0642209
-847.718
0.0474758
-701.893
0.0336076
-581.189
0.0221242
-481.287
0.0126149
-398.612
0.00473779
-330.203
-0.00178825
-273.613
-0.007198
-226.815
-0.0116854
-188.135
-0.0154109
-156.188
-0.0185072
-129.83
-0.0210845
-108.117
-0.0232339
-90.2729
-0.0250311
-75.6581
-0.0265378
-63.7497
-0.0278052
-54.1215
-0.0288725
-46.4289
-0.0297683
-40.3965
-0.0305079
-35.8082
-0.0310834
-32.4993
-0.0314638
-30.3503
-0.0315493
-29.282
-0.0311329
-29.1471
-0.0301561
-23.2254
-0.028706
-18.5006
-0.0269231
-14.7334
-0.0249444
-11.7315
-0.0228902
-9.3409
-0.020853
-7.43809
-0.0189012
-5.92406
-0.0170875
-4.71958
-0.0154544
-3.7614
-0.0140361
-2.99913
-0.0128573
-2.3927
-0.0119272
-1.91033
-0.0112365
-1.52686
-0.0107634
-1.22235
-0.010475
-0.981058
-0.0103321
-0.790552
-0.0102934
-0.641039
-0.0103203
-0.524836
-0.0103803
-0.435943
-0.0104432
-0.369739
-0.0104852
-0.322787
-0.0105144
-0.292603
-0.27733
-0.010497
0.134448
-1236.69
0.105087
-1023.85
0.0806844
-847.694
0.0605106
-701.872
0.0438201
-581.172
0.0300094
-481.273
0.0185816
-398.6
0.00912003
-330.194
0.00128262
-273.605
-0.00521318
-226.809
-0.010602
-188.13
-0.0150777
-156.183
-0.018801
-129.826
-0.0219052
-108.114
-0.0245006
-90.2703
-0.0266786
-75.656
-0.0285154
-63.7479
-0.0300727
-54.1199
-0.0314004
-46.4275
-0.0325349
-40.3953
-0.0334969
-35.8073
-0.034283
-32.4986
-0.0348602
-30.3497
-0.0351172
-29.2817
-0.0348128
-29.1474
-0.0338127
-23.2264
-0.0322213
-18.5022
-0.0302068
-14.7354
-0.0279368
-11.7338
-0.0255614
-9.34328
-0.0231987
-7.44046
-0.0209365
-5.92632
-0.0188413
-4.72168
-0.0169644
-3.76328
-0.0153443
-3.00075
-0.0140059
-2.39404
-0.012954
-1.91138
-0.0121711
-1.52764
-0.011625
-1.2229
-0.0112727
-0.98141
-0.0110658
-0.790759
-0.0109562
-0.641149
-0.0109011
-0.524891
-0.0108657
-0.435978
-0.0108213
-0.369784
-0.010745
-0.322864
-0.0106327
-0.292716
-0.277518
-0.0104451
0.160654
-1236.65
0.126167
-1023.81
0.0975563
-847.665
0.0739321
-701.849
0.0544045
-581.153
0.0382637
-481.257
0.0249144
-398.587
0.0138699
-330.183
0.0047254
-273.596
-0.00285231
-226.801
-0.0091388
-188.123
-0.0143623
-156.178
-0.0187115
-129.822
-0.0223427
-108.11
-0.0253859
-90.2673
-0.0279491
-75.6534
-0.0301221
-63.7457
-0.0319787
-54.1181
-0.0335787
-46.4259
-0.0349669
-40.3939
-0.0361711
-35.8061
-0.037191
-32.4975
-0.0379933
-30.3489
-0.0384547
-29.2812
-0.0382981
-29.1476
-0.0372954
-23.2274
-0.0355718
-18.5039
-0.0333266
-14.7377
-0.0307619
-11.7363
-0.0280612
-9.34598
-0.0253702
-7.44315
-0.022798
-5.9289
-0.0204252
-4.72405
-0.018311
-3.7654
-0.016497
-3.00256
-0.0150062
-2.39553
-0.0138372
-1.91255
-0.0129617
-1.52852
-0.0123364
-1.22352
-0.0119076
-0.981839
-0.0116187
-0.791047
-0.0114167
-0.641351
-0.0112573
-0.52505
-0.0111066
-0.436129
-0.0109386
-0.369952
-0.0107302
-0.323072
-0.0104715
-0.292974
-0.27787
-0.0101197
0.187436
-1236.6
0.14772
-1023.77
0.114829
-847.632
0.0877034
-701.822
0.0653096
-581.13
0.0468151
-481.239
0.0315342
-398.572
0.0189009
-330.17
0.00844695
-273.585
-0.000213674
-226.793
-0.00739855
-188.116
-0.0133705
-156.172
-0.0183467
-129.817
-0.0225079
-108.106
-0.0260036
-90.2638
-0.0289587
-75.6504
-0.031477
-63.7432
-0.0336452
-54.1159
-0.0355331
-46.424
-0.037195
-40.3923
-0.0386655
-35.8046
-0.0399483
-32.4963
-0.0410104
-30.3478
-0.0417155
-29.2805
-0.041748
-29.1475
-0.0407648
-23.2284
-0.0389151
-18.5058
-0.0364341
-14.7401
-0.0335632
-11.7392
-0.0305233
-9.34902
-0.0274913
-7.44618
-0.024599
-5.93179
-0.0219417
-4.72671
-0.0195865
-3.76775
-0.017576
-3.00458
-0.01593
-2.39717
-0.0146386
-1.91384
-0.0136614
-1.52949
-0.0129428
-1.22424
-0.0124191
-0.982363
-0.0120273
-0.791439
-0.0117123
-0.641666
-0.0114306
-0.525332
-0.0111515
-0.436408
-0.0108527
-0.370251
-0.0105116
-0.323413
-0.0101163
-0.293369
-0.278363
-0.00962348
0.214894
-1236.54
0.169826
-1023.73
0.132568
-847.595
0.101885
-701.791
0.0765866
-581.105
0.0557194
-481.218
0.0384966
-398.554
0.0242672
-330.156
0.0125017
-273.574
0.00275797
-226.783
-0.00532481
-188.108
-0.012045
-156.166
-0.0176498
-129.811
-0.0223435
-108.102
-0.0262965
-90.2598
-0.0296507
-75.6471
-0.0325253
-63.7403
-0.0350189
-54.1134
-0.0372132
-46.4218
-0.0391715
-40.3903
-0.0409368
-35.8028
-0.0425174
-32.4947
-0.04388
-30.3465
-0.0448761
-29.2795
-0.0451493
-29.1472
-0.0442151
-23.2293
-0.0422513
-18.5078
-0.0395341
-14.7429
-0.0363494
-11.7424
-0.0329599
-9.35241
-0.0295768
-7.44956
-0.0263568
-5.93501
-0.0234103
-4.72965
-0.0208108
-3.77035
-0.0186013
-3.00678
-0.016796
-2.39898
-0.015375
-1.91526
-0.0142846
-1.53058
-0.0134573
-1.22507
-0.0128206
-0.983
-0.0123078
-0.791952
-0.0118645
-0.642109
-0.0114508
-0.525745
-0.0110404
-0.436818
-0.0106152
-0.370676
-0.0101529
-0.323875
-0.00964197
-0.29388
-0.278964
-0.00904037
0.243131
-1236.48
0.192576
-1023.68
0.150864
-847.553
0.116562
-701.757
0.0883234
-581.077
0.0650631
-481.195
0.0458866
-398.535
0.0300612
-330.14
0.0169825
-273.561
0.00615834
-226.772
-0.00281925
-188.099
-0.0102856
-156.158
-0.016518
-129.805
-0.0217462
-108.096
-0.0261612
-90.2554
-0.0299225
-75.6433
-0.0331645
-63.7371
-0.0359995
-54.1106
-0.0385207
-46.4193
-0.0408021
-40.388
-0.0428949
-35.8007
-0.0448134
-32.4928
-0.046525
-30.3448
-0.0478685
-29.2782
-0.0484449
-29.1467
-0.0475981
-23.2302
-0.0455394
-18.5098
-0.0425919
-14.7458
-0.0390911
-11.7459
-0.0353464
-9.35615
-0.0316066
-7.4533
-0.0280547
-5.93856
-0.0248164
-4.73289
-0.0219711
-3.7732
-0.0195598
-3.0092
-0.0175902
-2.40095
-0.0160311
-1.91682
-0.0148152
-1.5318
-0.0138638
-1.22602
-0.0130985
-0.983765
-0.0124519
-0.792599
-0.0118728
-0.642689
-0.0113268
-0.526291
-0.0107921
-0.437353
-0.0102539
-0.371214
-0.00969072
-0.324439
-0.00909097
-0.29448
-0.27964
-0.00841513
0.272253
-1236.41
0.216067
-1023.62
0.169796
-847.507
0.131813
-701.719
0.100596
-581.046
0.0749223
-481.169
0.0537849
-398.514
0.0363605
-330.122
0.0219754
-273.546
0.0100759
-226.76
0.00020872
-188.089
-0.00800008
-156.15
-0.0148584
-129.798
-0.0206216
-108.091
-0.0255024
-90.2505
-0.0296788
-75.6391
-0.0333008
-63.7335
-0.0364949
-54.1074
-0.0393667
-46.4165
-0.0420015
-40.3854
-0.04446
-35.7983
-0.0467631
-32.4905
-0.04888
-30.3427
-0.0506375
-29.2764
-0.051592
-29.1457
-0.0508812
-23.2309
-0.0487551
-18.5119
-0.0455899
-14.749
-0.0417767
-11.7497
-0.0376762
-9.36025
-0.0335781
-7.4574
-0.0296933
-5.94244
-0.0261627
-4.73642
-0.0230703
-3.77629
-0.0204543
-3.01181
-0.0183143
-2.40309
-0.0166074
-1.91853
-0.0152533
-1.53315
-0.0141644
-1.22711
-0.0132593
-0.98467
-0.0124725
-0.793385
-0.0117583
-0.643403
-0.011088
-0.526962
-0.0104434
-0.437998
-0.00981206
-0.371845
-0.00917176
-0.325079
-0.00851065
-0.295141
-0.280359
-0.00779158
0.302371
-1236.34
0.240389
-1023.56
0.189453
-847.456
0.147721
-701.677
0.113487
-581.011
0.0853806
-481.141
0.0622779
-398.491
0.0432589
-330.103
0.0275732
-273.53
0.0146075
-226.747
0.00385875
-188.079
-0.00508536
-156.141
-0.0125656
-129.791
-0.0188635
-108.084
-0.0242138
-90.2452
-0.0288138
-75.6345
-0.0328296
-63.7294
-0.0364024
-54.1038
-0.0396515
-46.4132
-0.0426742
-40.3824
-0.0455422
-35.7954
-0.0482838
-32.4877
-0.0508715
-30.3401
-0.0531209
-29.2742
-0.054543
-29.1443
-0.0540282
-23.2314
-0.0518718
-18.5141
-0.0485096
-14.7523
-0.0443945
-11.7538
-0.0399432
-9.3647
-0.0354898
-7.46185
-0.0312741
-5.94666
-0.0274526
-4.74024
-0.0241128
-3.77963
-0.0212885
-3.01464
-0.0189709
-2.4054
-0.0171064
-1.92039
-0.0156026
-1.53466
-0.0143659
-1.22834
-0.0133149
-0.985721
-0.0123887
-0.794312
-0.0115476
-0.644244
-0.0107673
-0.527742
-0.010032
-0.438733
-0.00932918
-0.372548
-0.00863532
-0.325773
-0.00793719
-0.295839
-0.281097
-0.00719957
0.333593
-1236.26
0.265641
-1023.49
0.209926
-847.4
0.164374
-701.631
0.127084
-580.974
0.0965317
-481.11
0.0714608
-398.466
0.0508545
-330.083
0.0338799
-273.513
0.0198606
-226.733
0.00824281
-188.067
-0.00142729
-156.131
-0.00952293
-129.782
-0.0163536
-108.077
-0.0221765
-90.2394
-0.0272084
-75.6295
-0.0316327
-63.725
-0.0356064
-54.0998
-0.0392629
-46.4095
-0.0427129
-40.3789
-0.0460401
-35.7921
-0.0492821
-32.4845
-0.0524164
-30.3369
-0.0552485
-29.2714
-0.0572435
-29.1423
-0.0569979
-23.2316
-0.0548592
-18.5162
-0.0513299
-14.7559
-0.0469312
-11.7582
-0.042141
-9.36949
-0.0373401
-7.46665
-0.0327994
-5.9512
-0.0286901
-4.74435
-0.0251028
-3.78321
-0.0220664
-3.01767
-0.0195641
-2.40791
-0.0175323
-1.92242
-0.0158696
-1.53632
-0.0144793
-1.22974
-0.0132825
-0.986918
-0.0122241
-0.79537
-0.0112695
-0.645198
-0.0103974
-0.528614
-0.00959165
-0.439539
-0.00883843
-0.373301
-0.00811155
-0.3265
-0.00739577
-0.296555
-0.281835
-0.00665733
0.366041
-1236.16
0.291934
-1023.42
0.231312
-847.339
0.181867
-701.582
0.141489
-580.934
0.108475
-481.077
0.0814436
-398.439
0.0592604
-330.061
0.0410152
-273.495
0.0259606
-226.718
0.0134902
-188.055
0.00310781
-156.121
-0.00559432
-129.774
-0.0129534
-108.07
-0.0192508
-90.2331
-0.0247233
-75.624
-0.0295721
-63.7202
-0.0339709
-54.0954
-0.0380684
-46.4054
-0.04199
-40.375
-0.0458332
-35.7882
-0.0496467
-32.4807
-0.0534141
-30.3332
-0.0569335
-29.2678
-0.0596251
-29.1396
-0.0597368
-23.2315
-0.0576764
-18.5183
-0.0540209
-14.7595
-0.049366
-11.7629
-0.0442556
-9.3746
-0.0391209
-7.47179
-0.0342644
-5.95606
-0.0298727
-4.74875
-0.0260387
-3.78705
-0.0227864
-3.02092
-0.0200922
-2.4106
-0.0178853
-1.92463
-0.0160578
-1.53815
-0.0145127
-1.23128
-0.0131757
-0.988255
-0.0119971
-0.796549
-0.0109457
-0.64625
-0.0100007
-0.529559
-0.00914394
-0.440395
-0.00835826
-0.374087
-0.00761453
-0.327243
-0.00689503
-0.297275
-0.282563
-0.00616725
0.399839
-1236.06
0.319374
-1023.34
0.253724
-847.274
0.200314
-701.529
0.156812
-580.89
0.121334
-481.042
0.0923478
-398.41
0.0686126
-330.037
0.0491199
-273.476
0.0330544
-226.702
0.0197539
-188.041
0.00867765
-156.11
-0.000618068
-129.764
-0.00849922
-108.062
-0.0152713
-90.2263
-0.0211924
-75.6181
-0.0264831
-63.7149
-0.0313335
-54.0906
-0.0359096
-46.4009
-0.0403529
-40.3706
-0.0447762
-35.7838
-0.0492411
-32.4762
-0.0537411
-30.3287
-0.0580685
-29.2635
-0.0615999
-29.1361
-0.0621737
-23.231
-0.0602665
-18.5202
-0.0565374
-14.7632
-0.0516637
-11.7677
-0.0462602
-9.38001
-0.0408111
-7.47724
-0.0356523
-5.96122
-0.0309856
-4.75341
-0.0269066
-3.79113
-0.0234352
-3.0244
-0.0205431
-2.41349
-0.0181554
-1.92702
-0.0161609
-1.54014
-0.0144648
-1.23298
-0.0129976
-0.989722
-0.0117136
-0.797833
-0.0105829
-0.64738
-0.00958269
-0.530559
-0.00869094
-0.441287
-0.00788652
-0.374891
-0.00713713
-0.327993
-0.00642254
-0.297989
-0.283274
-0.00571125
0.435108
-1235.96
0.34807
-1023.25
0.277248
-847.203
0.219797
-701.471
0.173136
-580.844
0.135191
-481.004
0.10427
-398.379
0.079005
-330.012
0.058295
-273.455
0.0412489
-226.685
0.0271451
-188.027
0.015397
-156.098
0.00552398
-129.755
-0.00287039
-108.054
-0.0101172
-90.219
-0.0164956
-75.6117
-0.0222462
-63.7091
-0.0275781
-54.0853
-0.0326751
-46.3958
-0.0376963
-40.3655
-0.0427722
-35.7787
-0.04798
-32.471
-0.0533253
-30.3233
-0.0585987
-29.2582
-0.0631357
-29.1315
-0.0642954
-23.2298
-0.0626322
-18.5219
-0.058896
-14.767
-0.0538522
-11.7728
-0.0481915
-9.38567
-0.042454
-7.48298
-0.0370105
-5.96666
-0.0320789
-4.75834
-0.0277579
-3.79545
-0.0240654
-3.02809
-0.0209713
-2.41659
-0.0184003
-1.92959
-0.0162406
-1.5423
-0.0144012
-1.23482
-0.0128167
-0.991306
-0.0114435
-0.799206
-0.0102502
-0.648574
-0.00920999
-0.5316
-0.00829608
-0.442201
-0.00748276
-0.375705
-0.00673481
-0.328741
-0.00602969
-0.298694
-0.283967
-0.00533689
0.471983
-1235.84
0.378139
-1023.16
0.302005
-847.127
0.240436
-701.41
0.190594
-580.794
0.150186
-480.963
0.117352
-398.346
0.0905945
-329.985
0.0687061
-273.433
0.0507175
-226.667
0.0358451
-188.012
0.0234533
-156.086
0.0130235
-129.744
0.00412769
-108.045
-0.00359075
-90.2113
-0.0104348
-75.6049
-0.0166651
-63.7029
-0.0225108
-54.0794
-0.0281752
-46.3901
-0.0338372
-40.3599
-0.0396471
-35.7729
-0.0457006
-32.4649
-0.0520188
-30.317
-0.0583953
-29.2519
-0.064128
-29.1258
-0.0660178
-23.2279
-0.0647073
-18.5232
-0.0610453
-14.7706
-0.0558926
-11.7779
-0.0500201
-9.39154
-0.0440272
-7.48897
-0.0383212
-5.97237
-0.0331373
-4.76353
-0.0285794
-3.80001
-0.0246653
-3.032
-0.0213674
-2.41989
-0.0186138
-1.93234
-0.0162945
-1.54462
-0.0143224
-1.23679
-0.012635
-0.992994
-0.0111879
-0.800653
-0.00994608
-0.649815
-0.00887752
-0.532668
-0.00795015
-0.443128
-0.00713374
-0.376521
-0.00639058
-0.329484
-0.00569607
-0.299389
-0.284642
-0.00502082
0.510607
-1235.72
0.409712
-1023.06
0.328116
-847.045
0.262357
-701.344
0.20931
-580.741
0.166452
-480.921
0.13174
-398.311
0.103533
-329.957
0.0805154
-273.41
0.0616314
-226.648
0.0460321
-187.997
0.0330316
-156.073
0.0220705
-129.733
0.012689
-108.036
0.00450272
-90.2031
-0.00281433
-75.5976
-0.0095455
-63.6962
-0.0159405
-54.073
-0.022224
-46.3838
-0.0285966
-40.3535
-0.0352314
-35.7663
-0.042246
-32.4579
-0.0496813
-30.3096
-0.0573383
-29.2442
-0.064484
-29.1187
-0.0672708
-23.2251
-0.066441
-18.524
-0.0629512
-14.7741
-0.0577639
-11.7831
-0.0517355
-9.39757
-0.0455277
-7.49518
-0.0395865
-5.97831
-0.0341664
-4.76895
-0.0293788
-3.80479
-0.0252452
-3.03614
-0.0217446
-2.42339
-0.0188123
-1.93528
-0.0163418
-1.54709
-0.0142493
-1.23888
-0.0124728
-0.99477
-0.0109651
-0.802161
-0.00968578
-0.651095
-0.00859688
-0.533757
-0.00766113
-0.444064
-0.00684404
-0.377338
-0.00610605
-0.330222
-0.00542081
-0.300074
-0.285303
-0.00476011
0.55112
-1235.58
0.442921
-1022.95
0.355712
-846.958
0.285687
-701.274
0.229417
-580.684
0.184131
-480.875
0.147587
-398.275
0.117987
-329.927
0.0938988
-273.386
0.0741757
-226.628
0.0579001
-187.98
0.0443319
-156.059
0.0328709
-129.722
0.0230228
-108.026
0.0143757
-90.1945
0.00657784
-75.5898
-0.000675811
-63.6889
-0.00765875
-54.066
-0.0146181
-46.3769
-0.0217793
-40.3463
-0.0293407
-35.7587
-0.0374454
-32.4498
-0.046159
-30.3009
-0.0552968
-29.2351
-0.0641013
-29.1099
-0.0679769
-23.2212
-0.0677772
-18.5242
-0.0645753
-14.7773
-0.0594425
-11.7883
-0.0533254
-9.40369
-0.0469512
-7.50155
-0.0408076
-5.98445
-0.0351713
-4.77458
-0.0301644
-3.8098
-0.0258163
-3.04048
-0.0221173
-2.42708
-0.0190132
-1.93838
-0.016402
-1.5497
-0.0142016
-1.24108
-0.0123486
-0.996623
-0.0107908
-0.803719
-0.00948159
-0.652404
-0.0083769
-0.534862
-0.00743466
-0.445006
-0.00661666
-0.378156
-0.00588198
-0.330957
-0.00520286
-0.300753
-0.285953
-0.00455234
0.593683
-1235.44
0.477904
-1022.83
0.38492
-846.865
0.31056
-701.199
0.251062
-580.625
0.203379
-480.828
0.165057
-398.236
0.134134
-329.896
0.109045
-273.361
0.0885501
-226.608
0.0716571
-187.963
0.0575708
-156.045
0.0456467
-129.71
0.0353558
-108.015
0.0262566
-90.1854
0.0179721
-75.5815
0.0101719
-63.6811
0.00255915
-54.0584
-0.00513915
-46.3692
-0.0131746
-40.3383
-0.0217751
-35.7501
-0.0311133
-32.4405
-0.0412855
-30.2907
-0.0521286
-29.2242
-0.0628689
-29.0991
-0.0680513
-23.2161
-0.0686539
-18.5236
-0.0658752
-14.7801
-0.0609016
-11.7932
-0.0547748
-9.40981
-0.0482917
-7.50803
-0.0419848
-5.99076
-0.0361569
-4.78041
-0.0309448
-3.81501
-0.0263909
-3.04504
-0.022501
-2.43097
-0.0192346
-1.94165
-0.016494
-1.55244
-0.0141976
-1.24338
-0.0122783
-0.998543
-0.0106779
-0.805319
-0.00934312
-0.653739
-0.00822412
-0.535981
-0.00727469
-0.445956
-0.00645338
-0.378978
-0.00571845
-0.331692
-0.005041
-0.301431
-0.286599
-0.00439533
0.638457
-1235.28
0.51481
-1022.71
0.41589
-846.766
0.337126
-701.121
0.274395
-580.562
0.224361
-480.778
0.184331
-398.196
0.152161
-329.864
0.126156
-273.335
0.104968
-226.587
0.0875269
-187.946
0.0729797
-156.03
0.060636
-129.697
0.0499306
-108.005
0.0403912
-90.1759
0.0316138
-75.5727
0.0232424
-63.6727
0.0149542
-54.0501
0.00644879
-46.3607
-0.00255587
-40.3293
-0.0123197
-35.7404
-0.0230509
-32.4297
-0.0348818
-30.2788
-0.0476798
-29.2114
-0.0606663
-29.0861
-0.0674022
-23.2093
-0.0690037
-18.522
-0.066804
-14.7823
-0.0621108
-11.7979
-0.0560663
-9.41586
-0.049541
-7.51456
-0.0431169
-5.99718
-0.0371273
-4.7864
-0.0317288
-3.82041
-0.0269814
-3.04979
-0.0229114
-2.43504
-0.019494
-1.94506
-0.0166356
-1.5553
-0.0142535
-1.24576
-0.0122757
-1.00052
-0.010637
-0.806958
-0.00927794
-0.655098
-0.00814356
-0.537115
-0.00718412
-0.446915
-0.00635546
-0.379806
-0.00561543
-0.332432
-0.00493425
-0.302112
-0.287246
-0.00428741
0.685607
-1235.12
0.553795
-1022.58
0.448767
-846.661
0.365535
-701.037
0.299583
-580.496
0.247249
-480.725
0.205593
-398.155
0.172274
-329.831
0.145447
-273.308
0.123655
-226.565
0.105746
-187.928
0.0908043
-156.015
0.0780914
-129.685
0.0670044
-107.994
0.0570397
-90.1659
0.0477644
-75.5634
0.0387956
-63.6638
0.0297826
-54.0411
0.0203946
-46.3513
0.0103174
-40.3192
-0.000746699
-35.7293
-0.0130463
-32.4174
-0.0267572
-30.2651
-0.0417871
-29.1964
-0.057365
-29.0706
-0.0659304
-23.2008
-0.0687532
-18.5192
-0.0673098
-14.7838
-0.063036
-11.8022
-0.057179
-9.42172
-0.0506887
-7.52105
-0.0442012
-6.00367
-0.0380859
-4.79252
-0.0325247
-3.82597
-0.0276005
-3.05471
-0.023364
-2.43928
-0.0198082
-1.94862
-0.0168432
-1.55827
-0.0143837
-1.24822
-0.0123521
-1.00255
-0.0106768
-0.808633
-0.00929219
-0.656482
-0.00813923
-0.538268
-0.00716527
-0.447889
-0.00632394
-0.380648
-0.005573
-0.333182
-0.00488193
-0.302803
-0.287901
-0.0042274
0.735321
-1234.94
0.595022
-1022.44
0.483715
-846.55
0.39595
-700.95
0.326791
-580.427
0.27223
-480.671
0.229042
-398.112
0.194683
-329.796
0.167144
-273.281
0.144851
-226.543
0.126565
-187.91
0.111303
-156
0.0982787
-129.672
0.0868487
-107.982
0.076476
-90.1555
0.0666988
-75.5537
0.057105
-63.6542
0.0473137
-54.0313
0.0369624
-46.3409
0.0256988
-40.308
0.0131846
-35.7168
-0.00087606
-32.4034
-0.0167105
-30.2493
-0.0342774
-29.1788
-0.0528282
-29.052
-0.06353
-23.1901
-0.0678231
-18.5149
-0.0673359
-14.7842
-0.0636384
-11.8059
-0.0580888
-9.42726
-0.0517213
-7.52742
-0.0452328
-6.01016
-0.0390345
-4.79872
-0.03334
-3.83167
-0.0282601
-3.05979
-0.0238734
-2.44367
-0.0201925
-1.9523
-0.0171309
-1.56133
-0.0146004
-1.25075
-0.0125174
-1.00463
-0.0108044
-0.810346
-0.00939099
-0.657896
-0.00821454
-0.539445
-0.00722026
-0.448884
-0.00635992
-0.381508
-0.00559146
-0.333951
-0.00488377
-0.303511
-0.28857
-0.00421462
0.787782
-1234.75
0.638664
-1022.29
0.520899
-846.432
0.428545
-700.857
0.356207
-580.355
0.299493
-480.614
0.254887
-398.067
0.219608
-329.761
0.191482
-273.252
0.168804
-226.52
0.150243
-187.891
0.134747
-155.985
0.121476
-129.658
0.109746
-107.97
0.0989865
-90.1448
0.0887039
-75.5434
0.0784558
-63.6439
0.0678293
-54.0207
0.0564258
-46.3295
0.043853
-40.2954
0.029725
-35.7027
0.0136932
-32.3874
-0.00453078
-30.2311
-0.0249693
-29.1584
-0.046912
-29.0301
-0.0600889
-23.1769
-0.0661282
-18.5088
-0.0668203
-14.7836
-0.0638751
-11.8088
-0.0587672
-9.43237
-0.0526222
-7.53356
-0.0462041
-6.01658
-0.0399732
-4.80495
-0.0341806
-3.83746
-0.0289704
-3.065
-0.0244525
-2.44819
-0.0206602
-1.95609
-0.0175109
-1.56448
-0.0149136
-1.25335
-0.0127796
-1.00677
-0.0110261
-0.812099
-0.00957907
-0.659343
-0.00837301
-0.540651
-0.00735158
-0.449905
-0.00646509
-0.382394
-0.00567182
-0.334744
-0.00494022
-0.304242
-0.289261
-0.00424904
0.843191
-1234.55
0.684906
-1022.13
0.560499
-846.308
0.463498
-700.76
0.388013
-580.279
0.329242
-480.555
0.283342
-398.021
0.247282
-329.725
0.218706
-273.224
0.195772
-226.497
0.177049
-187.873
0.161413
-155.969
0.147968
-129.645
0.135988
-107.959
0.124865
-90.1336
0.114075
-75.5326
0.103142
-63.633
0.0916189
-54.0092
0.0790682
-46.317
0.0650525
-40.2814
0.0491338
-35.6867
0.0309021
-32.3691
0.00999909
-30.2102
-0.013675
-29.1347
-0.0394666
-29.0043
-0.0554889
-23.1609
-0.0635779
-18.5008
-0.0656956
-14.7814
-0.0636977
-11.8108
-0.0591815
-9.43689
-0.0533707
-7.53937
-0.0471045
-6.02284
-0.0408995
-4.81115
-0.0350507
-3.84331
-0.0297401
-3.07031
-0.025112
-2.45281
-0.021222
-1.95998
-0.0179928
-1.56771
-0.0153315
-1.25601
-0.0131453
-1.00896
-0.0113477
-0.813897
-0.00986142
-0.660829
-0.00861917
-0.541893
-0.00756344
-0.450961
-0.00664338
-0.383314
-0.00581768
-0.33557
-0.00505448
-0.305005
-0.289982
-0.00433337
0.901763
-1234.34
0.733938
-1021.96
0.602697
-846.176
0.500996
-700.659
0.422407
-580.201
0.361682
-480.494
0.314626
-397.974
0.277942
-329.688
0.249067
-273.195
0.226018
-226.474
0.207259
-187.854
0.191585
-155.953
0.178046
-129.631
0.16587
-107.946
0.154412
-90.1222
0.143112
-75.5213
0.131462
-63.6214
0.118977
-53.9967
0.105177
-46.3032
0.0895747
-40.2658
0.0716747
-35.6688
0.0509965
-32.3484
0.0271011
-30.1863
-0.00020257
-29.1074
-0.0303379
-28.9741
-0.0496074
-23.1416
-0.0600763
-18.4903
-0.0638889
-14.7776
-0.0630528
-11.8117
-0.0592939
-9.44065
-0.053942
-7.54472
-0.0479197
-6.02886
-0.0418077
-4.81726
-0.0359513
-3.84917
-0.0305748
-3.07569
-0.0258595
-2.45753
-0.0218857
-1.96396
-0.0185833
-1.57101
-0.0158594
-1.25873
-0.013619
-1.0112
-0.0117729
-0.815743
-0.010242
-0.66236
-0.00895757
-0.543177
-0.00786135
-0.452057
-0.00690148
-0.384274
-0.00603705
-0.336434
-0.00523594
-0.305807
-0.290739
-0.00447858
0.96373
-1234.11
0.785991
-1021.78
0.647724
-846.038
0.541277
-700.552
0.45964
-580.119
0.397084
-480.432
0.349028
-397.926
0.311885
-329.651
0.28288
-273.166
0.259874
-226.451
0.241214
-187.835
0.225619
-155.938
0.212074
-129.618
0.199761
-107.934
0.187998
-90.1104
0.176189
-75.5095
0.163789
-63.609
0.150272
-53.9832
0.135114
-46.288
0.117773
-40.2484
0.0976871
-35.6488
0.0742987
-32.3251
0.0470755
-30.1591
0.0157183
-29.0761
-0.0192921
-28.9391
-0.0422398
-23.1186
-0.0554444
-18.4771
-0.0612432
-14.7718
-0.0618022
-11.8111
-0.0589817
-9.44347
-0.0542264
-7.54948
-0.0485507
-6.03454
-0.0426075
-4.82321
-0.0367987
-3.85497
-0.0313951
-3.08109
-0.0266178
-2.46231
-0.0225736
-1.968
-0.0192033
-1.57438
-0.0164162
-1.26152
-0.0141172
-1.01349
-0.0122163
-0.817644
-0.0106334
-0.663943
-0.00929944
-0.544511
-0.00815561
-0.453201
-0.00714939
-0.385281
-0.00624036
-0.337343
-0.0053963
-0.306651
-0.291537
-0.00459836
1.02932
-1233.87
0.841254
-1021.6
0.695749
-845.893
0.584502
-700.441
0.499874
-580.034
0.435609
-480.368
0.386714
-397.877
0.349295
-329.614
0.320337
-273.137
0.297538
-226.428
0.279124
-187.817
0.263727
-155.922
0.250269
-129.604
0.237884
-107.922
0.225849
-90.0984
0.21353
-75.4972
0.200343
-63.5958
0.185721
-53.9686
0.16909
-46.2714
0.149846
-40.2292
0.127357
-35.6263
0.100977
-32.2987
0.0700678
-30.1281
0.0342051
-29.0402
-0.00624838
-28.8987
-0.0333345
-23.0916
-0.0496546
-18.4608
-0.0577525
-14.7637
-0.0599584
-11.8089
-0.0582738
-9.44515
-0.054266
-7.55349
-0.0490513
-6.03975
-0.0433625
-4.8289
-0.0376639
-3.86067
-0.0322771
-3.08648
-0.0274651
-2.46712
-0.0233649
-1.9721
-0.0199316
-1.57781
-0.0170802
-1.26437
-0.0147177
-1.01586
-0.0127547
-0.819607
-0.0111116
-0.665586
-0.00971947
-0.545903
-0.00851952
-0.454401
-0.00745868
-0.386341
-0.00649706
-0.338305
-0.00560251
-0.307545
-0.292383
-0.00475646
1.09876
-1233.62
0.899929
-1021.4
0.746959
-845.74
0.630846
-700.325
0.543276
-579.947
0.477431
-480.302
0.42787
-397.828
0.390355
-329.576
0.361631
-273.108
0.33921
-226.406
0.321194
-187.799
0.306121
-155.907
0.292848
-129.591
0.280458
-107.909
0.268184
-90.0861
0.255353
-75.4843
0.241342
-63.5818
0.225537
-53.9528
0.207309
-46.2532
0.18599
-40.2079
0.160868
-35.6011
0.131198
-32.269
0.0962238
-30.0932
0.0553758
-28.9994
0.00887635
-28.8522
-0.0228354
-23.0598
-0.0426722
-18.4409
-0.0534015
-14.753
-0.057524
-11.8048
-0.0571881
-9.44549
-0.0540927
-7.55658
-0.0494647
-6.04438
-0.0441254
-4.83423
-0.0386073
-3.86619
-0.0332864
-3.0918
-0.0284703
-2.47193
-0.0243296
-1.97624
-0.0208391
-1.5813
-0.0179227
-1.26729
-0.0154921
-1.01829
-0.0134603
-0.821639
-0.0117491
-0.667297
-0.0102903
-0.547362
-0.00902539
-0.455666
-0.00790094
-0.387466
-0.00687746
-0.339329
-0.00592291
-0.3085
-0.293287
-0.00501874
1.17233
-1233.35
0.962272
-1021.19
0.801598
-845.579
0.680554
-700.204
0.5901
-579.856
0.522809
-480.234
0.472757
-397.777
0.435344
-329.539
0.407047
-273.08
0.385187
-226.384
0.367728
-187.781
0.353113
-155.893
0.340128
-129.578
0.327802
-107.897
0.315325
-90.0736
0.301982
-75.471
0.287107
-63.5669
0.270037
-53.9357
0.250083
-46.2332
0.226509
-40.1843
0.198512
-35.5731
0.165239
-32.2357
0.125803
-30.0537
0.0794669
-28.953
0.0262875
-28.799
-0.0105608
-23.023
-0.0343338
-18.4172
-0.0480432
-14.7393
-0.0543675
-11.7985
-0.0556072
-9.44425
-0.0536012
-7.55859
-0.0496966
-6.04829
-0.0448108
-4.83912
-0.0395506
-3.87145
-0.0343496
-3.097
-0.0295629
-2.47672
-0.0253986
-1.98041
-0.0218569
-1.58484
-0.0188749
-1.27027
-0.0163714
-1.02079
-0.0142638
-0.823746
-0.0124762
-0.669085
-0.010942
-0.548896
-0.00960321
-0.457004
-0.00840645
-0.388663
-0.00731259
-0.340422
-0.00628968
-0.309523
-0.294258
-0.00531914
1.2503
-1233.06
1.02853
-1020.96
0.859894
-845.41
0.733841
-700.078
0.640556
-579.763
0.571951
-480.166
0.521589
-397.727
0.484479
-329.502
0.456808
-273.052
0.435694
-226.363
0.418957
-187.765
0.404935
-155.879
0.392344
-129.566
0.380154
-107.885
0.36751
-90.061
0.353654
-75.4571
0.337872
-63.5511
0.319451
-53.9173
0.297639
-46.2114
0.27162
-40.1583
0.240498
-35.542
0.203298
-32.1985
0.158985
-30.0094
0.106637
-28.9007
0.0461177
-28.7385
0.00359948
-22.9805
-0.024545
-18.389
-0.0415957
-14.7222
-0.0504205
-11.7896
-0.0534758
-9.44119
-0.0527478
-7.55932
-0.0497134
-6.05132
-0.0453941