/*--------------------------------*- C++ -*----------------------------------*\
  =========                 |
  \\      /  F ield         | OpenFOAM: The Open Source CFD Toolbox
   \\    /   O peration     | Website:  https://openfoam.org
    \\  /    A nd           | Version:  10
     \\/     M anipulation  |
\*---------------------------------------------------------------------------*/
FoamFile
{
    format      ascii;
    class       volVectorField;
    location    "10";
    object      U;
}
// * * * * * * * * * * * * * * * * * * * * * * * * * * * * * * * * * * * * * //

dimensions      [0 1 -1 0 0 0 0];

internalField   nonuniform List<vector> 
38016
(
(52.0874 -0.00388584 1.04012e-25)
(52.0866 -0.000516823 -1.47537e-26)
(52.0874 -0.00106568 1.78197e-26)
(52.0881 -0.000838899 0)
(52.0888 -0.000808467 0)
(52.0895 -0.000816826 0)
(52.0903 -0.000857222 2.52612e-26)
(52.0913 -0.000916358 2.78358e-22)
(52.0925 -0.000978674 -6.2527e-26)
(52.0939 -0.00102113 7.54268e-26)
(52.0955 -0.00100777 2.47991e-22)
(52.0973 -0.00088203 -2.83119e-26)
(52.0993 -0.000557268 2.48612e-22)
(52.1014 9.51516e-05 3.37364e-22)
(52.1034 0.0012616 -2.23822e-22)
(52.1052 0.00320674 0)
(52.1062 0.00630387 0)
(52.1061 0.0110857 0)
(52.1041 0.0183362 3.75431e-25)
(52.0994 0.0292412 -4.31469e-25)
(52.0907 0.0458044 1.65268e-22)
(52.0762 0.0708541 -2.49061e-22)
(52.0532 0.111251 3.52535e-22)
(52.0171 0.175809 -2.86952e-24)
(51.9659 0.283708 9.47014e-22)
(51.8889 0.453827 -1.683e-26)
(51.7976 0.680352 1.14624e-21)
(51.6976 0.956442 -1.43241e-23)
(51.5937 1.27206 -2.90817e-26)
(51.4912 1.61354 0)
(51.3947 1.96805 -4.05741e-26)
(51.3075 2.3247 -7.43627e-23)
(51.2314 2.67406 3.35181e-21)
(51.1667 3.00733 0)
(51.1122 3.31594 0)
(51.0653 3.59175 0)
(51.0224 3.82774 0)
(50.9796 4.01903 1.19728e-21)
(50.9325 4.16316 8.3019e-22)
(50.8771 4.26015 5.81562e-23)
(50.8105 4.31239 6.163e-23)
(50.7309 4.32388 -2.62113e-21)
(50.6376 4.29993 5.56858e-22)
(50.531 4.24724 -6.85896e-22)
(50.4107 4.17258 0)
(50.2789 4.07103 0)
(50.1446 3.92469 4.3097e-21)
(49.9425 3.86715 -3.96912e-21)
(52.0874 -0.00399731 -6.91787e-21)
(52.0866 -0.000550112 -5.91368e-26)
(52.0875 -0.00111013 -1.4478e-22)
(52.0881 -0.000881199 0)
(52.0888 -0.0008525 0)
(52.0895 -0.000864483 3.86117e-22)
(52.0903 -0.000910165 -1.53231e-27)
(52.0913 -0.000976107 -2.78394e-22)
(52.0925 -0.0010465 4.27852e-22)
(52.0939 -0.00109773 4.55347e-26)
(52.0954 -0.00109264 2.34566e-22)
(52.0973 -0.000972395 9.33198e-26)
(52.0993 -0.000646302 -2.48496e-22)
(52.1013 2.09361e-05 -3.3719e-22)
(52.1034 0.00122609 2.23611e-22)
(52.1051 0.00324939 -5.6252e-22)
(52.1061 0.00648688 -3.65342e-22)
(52.106 0.0115042 5.21461e-25)
(52.104 0.0191338 1.15771e-25)
(52.0993 0.0306343 -8.31591e-25)
(52.0906 0.0481238 -4.85665e-22)
(52.0762 0.0745985 7.35848e-22)
(52.0535 0.117238 -3.54183e-22)
(52.0187 0.185185 -1.02536e-21)
(51.9649 0.299576 9.49232e-22)
(51.889 0.479046 5.89386e-24)
(51.7993 0.717623 -1.1307e-21)
(51.7014 1.00774 -4.33029e-21)
(51.5998 1.33844 3.85411e-21)
(51.4996 1.69482 0)
(51.405 2.06284 0)
(51.3193 2.43047 -4.28736e-21)
(51.244 2.78734 -3.25802e-21)
(51.1791 3.12396 4.90352e-21)
(51.1232 3.43137 0)
(51.0734 3.70137 -5.06937e-21)
(51.0259 3.92723 0)
(50.9767 4.10482 -1.19769e-21)
(50.9212 4.23273 1.67193e-21)
(50.8554 4.3122 -2.07965e-21)
(50.7765 4.34684 2.78182e-21)
(50.683 4.34184 8.86812e-22)
(50.5748 4.30346 5.61461e-22)
(50.4527 4.23925 -6.91076e-22)
(50.3168 4.15628 0)
(50.1712 4.04752 0)
(50.0256 3.89776 3.25792e-21)
(49.8143 3.83812 -3.99318e-21)
(52.0874 -0.00409634 -6.96431e-23)
(52.0866 -0.000582686 0)
(52.0875 -0.00115308 2.79301e-22)
(52.0881 -0.000922064 0)
(52.0888 -0.000894999 0)
(52.0895 -0.000910454 -3.86116e-22)
(52.0903 -0.000961264 1.19033e-26)
(52.0913 -0.00103388 -1.9148e-26)
(52.0925 -0.00111225 -4.27854e-22)
(52.0938 -0.00117223 4.42978e-26)
(52.0954 -0.00117552 -4.8281e-22)
(52.0973 -0.001061 -6.72426e-22)
(52.0993 -0.000733995 9.34763e-22)
(52.1014 -5.2527e-05 6.29829e-25)
(52.1034 0.0011907 -3.97266e-25)
(52.1051 0.00329184 5.62216e-22)
(52.1062 0.00667033 3.65287e-22)
(52.1061 0.011926 -6.21316e-26)
(52.1041 0.019942 5.83176e-25)
(52.0995 0.0320535 0)
(52.0911 0.0505042 9.40739e-22)
(52.0769 0.078476 -4.86724e-22)
(52.0544 0.123536 6.83232e-22)
(52.0201 0.195381 2.03723e-21)
(51.9674 0.316184 1.71476e-25)
(51.8927 0.505515 0)
(51.8045 0.756588 -4.60193e-21)
(51.7081 1.06098 4.29305e-21)
(51.6078 1.40665 -3.82573e-21)
(51.5085 1.77737 0)
(51.4145 2.15785 -1.94881e-22)
(51.3287 2.53506 -3.81243e-21)
(51.2527 2.89789 -8.35765e-22)
(51.1862 3.23645 -3.65692e-21)
(51.1275 3.5417 6.33684e-21)
(51.0734 3.80571 5.06401e-21)
(51.0199 4.02238 0)
(50.9629 4.18857 4.83851e-21)
(50.8977 4.30407 -1.67638e-21)
(50.8203 4.37137 2.08501e-21)
(50.7282 4.39528 -5.62121e-21)
(50.6205 4.38199 3.49717e-21)
(50.4974 4.33847 -5.65303e-21)
(50.3604 4.27301 1.24978e-21)
(50.2104 4.19254 -1.27178e-22)
(50.053 4.08633 9.52095e-21)
(49.8942 3.94897 3.77047e-24)
(49.6746 3.90779 7.99935e-21)
(52.0874 -0.0042036 2.11024e-20)
(52.0866 -0.000617413 0)
(52.0875 -0.00119849 -1.34413e-22)
(52.0881 -0.000965117 -4.56477e-26)
(52.0888 -0.00093968 -8.30494e-22)
(52.0895 -0.000958747 2.76243e-26)
(52.0903 -0.00101494 6.17318e-22)
(52.0913 -0.00109456 0)
(52.0925 -0.00118132 8.07933e-22)
(52.0938 -0.00125047 0)
(52.0954 -0.00126242 -9.11829e-22)
(52.0973 -0.00115361 6.72581e-22)
(52.0993 -0.000824963 -9.34771e-22)
(52.1014 -0.000127191 -2.88492e-25)
(52.1034 0.00115849 -8.02915e-22)
(52.1052 0.0033455 -1.0387e-21)
(52.1062 0.00687863 7.1234e-25)
(52.1062 0.0123945 -8.38988e-25)
(52.1043 0.0208304 0)
(52.0998 0.0336032 8.42231e-22)
(52.0915 0.0530885 -1.22035e-21)
(52.0775 0.0826634 9.28036e-22)
(52.0553 0.13029 -2.02125e-21)
(52.0214 0.206207 -1.02038e-21)
(51.9694 0.333803 -1.88418e-21)
(51.8957 0.533271 -2.38097e-23)
(51.8087 0.797089 3.41168e-25)
(51.7136 1.11592 8.80113e-21)
(51.6146 1.47661 -7.88296e-21)
(51.5166 1.86156 0)
(51.4238 2.25424 0)
(51.3389 2.64061 -6.89022e-23)
(51.2633 3.00889 6.6691e-21)
(51.1964 3.34886 0)
(51.1362 3.65155 -7.16843e-21)
(51.079 3.90944 0)
(51.0205 4.11723 0)
(50.9564 4.27293 -4.83095e-21)
(50.8819 4.3777 3.1338e-21)
(50.7932 4.43534 4.28638e-21)
(50.6882 4.45185 -5.43654e-21)
(50.5663 4.43436 -3.53875e-21)
(50.4289 4.39038 -9.02304e-21)
(50.2779 4.32886 1.08209e-20)
(50.1156 4.25614 0)
(49.9484 4.15771 -1.08274e-23)
(49.7776 4.04059 1.81586e-20)
(49.5522 4.03099 -1.79957e-20)
(52.0874 -0.00431438 -1.41158e-20)
(52.0866 -0.000652718 2.39006e-25)
(52.0875 -0.00124502 -2.2711e-22)
(52.0881 -0.00100923 5.16478e-22)
(52.0888 -0.000985491 8.30496e-22)
(52.0895 -0.00100832 6.94362e-22)
(52.0903 -0.00107011 5.76521e-22)
(52.0913 -0.00115706 0)
(52.0925 -0.0012526 -8.07962e-22)
(52.0938 -0.00133139 1.68428e-26)
(52.0954 -0.00135254 9.11604e-22)
(52.0973 -0.00124991 1.45944e-25)
(52.0993 -0.000919874 0)
(52.1014 -0.000205531 -3.08645e-25)
(52.1034 0.00112389 8.03281e-22)
(52.1052 0.00339986 1.03868e-21)
(52.1063 0.00709348 6.40942e-22)
(52.1063 0.0128794 -8.40781e-22)
(52.1045 0.0217506 0)
(52.1001 0.035207 -1.65112e-21)
(52.0919 0.0557581 5.99992e-22)
(52.0782 0.0869758 -9.3005e-22)
(52.0564 0.137221 2.65845e-21)
(52.0231 0.217252 5.64935e-24)
(51.9721 0.351617 -5.67557e-24)
(51.8999 0.561178 -2.392e-23)
(51.8148 0.837585 9.36131e-21)
(51.7219 1.17052 -8.85633e-21)
(51.6252 1.54562 -5.9326e-23)
(51.5294 1.9439 0)
(51.4384 2.34754 3.95289e-22)
(51.3549 2.74152 8.2024e-21)
(51.2798 3.11346 -6.66275e-21)
(51.2124 3.45294 0)
(51.1502 3.75126 0)
(51.0891 4.00152 1.02478e-20)
(51.0246 4.19945 -3.72988e-21)
(50.9522 4.34442 4.66076e-21)
(50.8672 4.43907 2.10241e-22)
(50.7662 4.48861 -8.29901e-21)
(50.6478 4.50015 5.5083e-21)
(50.5121 4.48158 7.04193e-21)
(50.3613 4.44075 1.78972e-20)
(50.1985 4.38692 -2.41588e-20)
(50.027 4.32558 -2.62129e-20)
(49.8535 4.23871 2.98864e-20)
(49.676 4.14705 2.09474e-21)
(49.4517 4.17439 2.22542e-21)
(52.0874 -0.00442978 0)
(52.0866 -0.00068913 0)
(52.0875 -0.00129314 2.2679e-22)
(52.0881 -0.00105478 -5.16441e-22)
(52.0888 -0.00103277 0)
(52.0895 -0.0010595 -6.94367e-22)
(52.0903 -0.00112713 -1.19393e-21)
(52.0913 -0.00122172 5.22567e-26)
(52.0925 -0.00132646 0)
(52.0938 -0.00141536 0)
(52.0954 -0.00144617 1.71587e-21)
(52.0973 -0.00135008 0)
(52.0993 -0.00101865 0)
(52.1014 -0.000286936 1.13633e-21)
(52.1035 0.00108846 1.484e-21)
(52.1052 0.00345799 -9.52594e-22)
(52.1064 0.00732037 -6.40292e-22)
(52.1064 0.01339 1.63964e-21)
(52.1047 0.0227173 1.01874e-24)
(52.1004 0.0368878 8.07144e-22)
(52.0924 0.0585474 -1.11778e-21)
(52.0789 0.0914647 0)
(52.0576 0.144402 -1.31647e-21)
(52.0249 0.228631 0)
(51.975 0.369837 0)
(51.9044 0.589517 2.40283e-23)
(51.8213 0.878429 -1.40472e-20)
(51.7306 1.22521 8.91539e-21)
(51.6363 1.61426 7.93503e-21)
(51.5427 2.02516 0)
(51.4536 2.43881 1.07569e-20)
(51.3715 2.83925 4.99115e-22)
(51.297 3.21358 1.43966e-20)
(51.2289 3.55137 7.48845e-21)
(51.1645 3.84432 3.64288e-21)
(51.0992 4.08637 -2.29183e-20)
(51.0283 4.27446 3.72456e-21)
(50.9472 4.40946 -4.65387e-21)
(50.8518 4.49558 -6.43367e-21)
(50.739 4.53935 1.29376e-20)
(50.6082 4.54887 -1.6258e-20)
(50.4605 4.53253 -1.42286e-20)
(50.2993 4.49816 2.16384e-20)
(50.1285 4.45503 2.69753e-21)
(49.9521 4.40774 -2.59523e-20)
(49.7775 4.33458 2.77327e-20)
(49.6005 4.26986 -2.09293e-21)
(49.3849 4.33379 -2.22404e-21)
(52.0874 -0.00454976 -1.7887e-24)
(52.0866 -0.00072658 0)
(52.0875 -0.00134282 -1.85263e-22)
(52.0881 -0.00110175 7.97014e-26)
(52.0888 -0.00108152 -1.14571e-25)
(52.0895 -0.0011123 2.37715e-25)
(52.0903 -0.00118601 1.11206e-21)
(52.0913 -0.00128859 -1.84944e-21)
(52.0925 -0.00140294 0)
(52.0938 -0.00150246 2.25274e-21)
(52.0954 -0.00154345 -1.71594e-21)
(52.0973 -0.00145432 -1.59344e-25)
(52.0993 -0.00112156 1.91684e-25)
(52.1014 -0.000371809 -1.13636e-21)
(52.1035 0.00105165 -1.48367e-21)
(52.1053 0.00351917 9.51696e-22)
(52.1065 0.00755834 5.63078e-25)
(52.1065 0.0139248 -7.99679e-22)
(52.1049 0.0237286 -9.69859e-25)
(52.1007 0.0386426 0)
(52.0929 0.0614519 1.12239e-21)
(52.0798 0.0961221 1.71955e-21)
(52.0589 0.151822 0)
(52.027 0.240322 0)
(51.9782 0.388421 -2.22526e-23)
(51.9094 0.6182 2.79166e-23)
(51.8287 0.919472 9.35984e-21)
(51.7406 1.27977 -8.91233e-21)
(51.649 1.68223 -1.50319e-22)
(51.558 2.10496 4.38492e-22)
(51.471 2.52762 -1.18608e-20)
(51.3903 2.93338 1.75741e-20)
(51.3163 3.30895 -1.2682e-20)
(51.2474 3.64401 -2.00259e-20)
(51.1804 3.93086 0)
(51.1104 4.16449 1.02392e-20)
(51.0325 4.34316 3.71147e-21)
(50.9426 4.46935 -1.4226e-20)
(50.8367 4.54882 1.28138e-20)
(50.7127 4.5893 -8.3763e-21)
(50.571 4.59962 0)
(50.4139 4.58831 -3.47564e-21)
(50.2455 4.56285 -4.66433e-23)
(50.0707 4.53213 2.14651e-20)
(49.8942 4.49996 -5.40255e-20)
(49.7236 4.4404 -4.79084e-22)
(49.5536 4.40133 3.27333e-20)
(49.3531 4.49732 -4.36458e-21)
(52.0874 -0.00467445 2.93265e-20)
(52.0866 -0.000765131 8.69213e-21)
(52.0875 -0.00139411 -1.43197e-22)
(52.0881 -0.0011502 -9.22448e-22)
(52.0888 -0.0011318 3.022e-26)
(52.0895 -0.00116679 -1.32711e-25)
(52.0903 -0.00124683 -2.18337e-21)
(52.0913 -0.00135774 1.84954e-21)
(52.0925 -0.00148216 -2.81255e-26)
(52.0938 -0.00159283 -2.25288e-21)
(52.0954 -0.00164457 0)
(52.0973 -0.00156285 2.29141e-21)
(52.0993 -0.00122889 2.08391e-25)
(52.1014 -0.000460449 -2.50223e-25)
(52.1035 0.00101313 -3.53007e-25)
(52.1053 0.00358305 -1.73295e-21)
(52.1066 0.00780702 -5.86469e-25)
(52.1067 0.0144834 6.90708e-25)
(52.1051 0.0247836 0)
(52.1011 0.0404696 0)
(52.0935 0.0644673 0)
(52.0807 0.100938 -1.72638e-21)
(52.0603 0.159458 -1.88789e-24)
(52.0292 0.252281 1.94137e-21)
(51.9817 0.407284 0)
(51.9149 0.647071 0)
(51.8368 0.960459 0)
(51.7517 1.33384 -9.01718e-21)
(51.6631 1.74903 1.61696e-20)
(51.5749 2.1827 -1.42833e-20)
(51.4902 2.61333 -9.82944e-21)
(51.411 3.02326 -1.99261e-20)
(51.3374 3.39898 -1.1981e-20)
(51.2674 3.73044 1.00168e-20)
(51.1974 4.01076 0)
(51.1222 4.23608 0)
(51.0371 4.40613 6.68517e-21)
(50.9382 4.52502 9.2833e-21)
(50.8224 4.59993 -6.38027e-21)
(50.6885 4.6396 8.36673e-21)
(50.5381 4.65322 -2.19044e-20)
(50.3744 4.64908 5.46851e-20)
(50.2027 4.63393 -3.80802e-20)
(50.0281 4.61604 0)
(49.8559 4.59854 5.07311e-20)
(49.6939 4.55063 -5.78497e-20)
(49.5355 4.53385 -4.05174e-21)
(49.3543 4.65557 4.36416e-21)
(52.0874 -0.00480397 -5.89312e-20)
(52.0867 -0.00080483 -8.69158e-21)
(52.0875 -0.00144707 3.284e-22)
(52.0881 -0.00120019 9.22531e-22)
(52.0888 -0.00118367 0)
(52.0895 -0.00122303 -9.192e-26)
(52.0903 -0.00130966 -9.89158e-22)
(52.0913 -0.00142927 0)
(52.0925 -0.00156424 2.7534e-21)
(52.0938 -0.00168661 0)
(52.0954 -0.00174969 -5.31749e-26)
(52.0973 -0.00167589 -2.29147e-21)
(52.0993 -0.00134088 0)
(52.1014 -0.000553153 0)
(52.1036 0.000972556 -3.36654e-25)
(52.1054 0.00364924 1.73426e-21)
(52.1066 0.00806593 -5.08712e-25)
(52.1068 0.0150652 1.36051e-21)
(52.1054 0.0258812 0)
(52.1015 0.0423664 0)
(52.0941 0.0675886 0)
(52.0816 0.105903 3.90311e-24)
(52.0618 0.16729 -4.17881e-24)
(52.0316 0.264467 -1.93487e-21)
(51.9856 0.426338 0)
(51.921 0.675965 0)
(51.8458 1.00112 -9.39982e-21)
(51.7639 1.38702 1.79558e-20)
(51.6786 1.81416 8.69219e-23)
(51.5935 2.25779 1.37728e-20)
(51.5113 2.69524 1.12543e-20)
(51.4337 3.10821 -1.77843e-20)
(51.3604 3.48306 1.35254e-20)
(51.289 3.81022 0)
(51.2157 4.08377 0)
(51.1351 4.30118 -2.56491e-20)
(51.0425 4.46367 6.62472e-21)
(50.935 4.57691 9.50442e-21)
(50.8102 4.64937 -1.25072e-20)
(50.6683 4.69042 -8.17506e-21)
(50.5116 4.70924 2.16032e-20)
(50.3448 4.71351 -2.65642e-20)
(50.1735 4.70894 0)
(50.003 4.70301 0)
(49.8386 4.69841 9.26332e-21)
(49.6886 4.659 0)
(49.5444 4.6601 8.04976e-21)
(49.3841 4.80088 0)
(52.0874 -0.00493844 2.96007e-20)
(52.0867 -0.000845731 0)
(52.0875 -0.00150175 2.46782e-22)
(52.0881 -0.00125176 8.48225e-22)
(52.0888 -0.00123717 1.27697e-21)
(52.0895 -0.00128107 1.76392e-25)
(52.0903 -0.00137457 4.03869e-21)
(52.0913 -0.00150327 3.0326e-25)
(52.0925 -0.00164927 -2.75352e-21)
(52.0938 -0.00178394 -1.14673e-25)
(52.0954 -0.00185897 -3.00181e-21)
(52.0973 -0.00179363 0)
(52.0993 -0.0014578 0)
(52.1015 -0.000650244 0)
(52.1036 0.000929536 1.24102e-21)
(52.1055 0.00371725 -1.5624e-21)
(52.1067 0.00833439 9.85211e-22)
(52.107 0.0156691 -1.36126e-21)
(52.1057 0.0270195 8.24038e-25)
(52.1019 0.0443295 0)
(52.0948 0.070809 -2.41729e-24)
(52.0827 0.111002 2.66288e-24)
(52.0634 0.17529 0)
(52.0342 0.276827 3.79525e-21)
(51.9898 0.445485 -2.23233e-23)
(51.9277 0.704706 2.79988e-23)
(51.8557 1.04119 9.49277e-21)
(51.7774 1.43892 4.32272e-23)
(51.6958 1.8771 -1.59353e-20)
(51.614 2.32961 -1.427e-20)
(51.5345 2.77273 -8.06832e-22)
(51.4584 3.18761 1.87808e-20)
(51.3852 3.56068 0)
(51.3123 3.88302 0)
(51.2354 4.14982 1.43418e-20)
(51.1492 4.35996 2.02548e-20)
(51.0493 4.51614 -1.39388e-20)
(50.9337 4.62547 -9.30728e-21)
(50.8014 4.69741 1.59427e-22)
(50.6534 4.7416 1.62159e-20)
(50.4935 4.76681 -2.12657e-20)
(50.3267 4.77977 -7.6998e-22)
(50.159 4.78503 2.45488e-20)
(49.9956 4.78922 5.04722e-21)
(49.8415 4.79491 -6.1433e-21)
(49.7052 4.76034 5.72408e-20)
(49.5763 4.77476 -1.30929e-19)
(49.4363 4.92866 6.73668e-20)
(52.0874 -0.00507798 -5.9905e-25)
(52.0867 -0.000887887 1.78217e-20)
(52.0875 -0.00155821 -4.53057e-22)
(52.0881 -0.00130497 -8.48263e-22)
(52.0888 -0.00129237 -1.27705e-21)
(52.0895 -0.00134097 -1.15746e-25)
(52.0903 -0.00144163 -1.97845e-21)
(52.0913 -0.00157981 -1.74211e-25)
(52.0925 -0.00173736 9.17286e-26)
(52.0938 -0.00188493 -1.10658e-25)
(52.0954 -0.00197259 1.07566e-22)
(52.0973 -0.00191628 -3.72462e-27)
(52.0993 -0.00157989 0)
(52.1015 -0.000752048 1.84912e-21)
(52.1036 0.000883645 -1.24081e-21)
(52.1055 0.00378649 1.56209e-21)
(52.1068 0.00861158 -9.84784e-22)
(52.1072 0.0162938 -1.20116e-21)
(52.1059 0.0281963 -9.60936e-25)
(52.1024 0.0463547 -3.40856e-25)
(52.0955 0.0741203 -7.11356e-25)
(52.0838 0.116221 -1.54366e-21)
(52.0652 0.18343 -4.00214e-24)
(52.037 0.289306 -3.79515e-21)
(51.9944 0.464616 0)
(51.935 0.733103 4.89487e-23)
(51.8665 1.08035 -6.14028e-23)
(51.7921 1.48912 9.34969e-21)
(51.7145 1.93735 -2.21449e-22)
(51.6363 2.39759 -4.16972e-23)
(51.5596 2.84518 -2.26695e-20)
(51.4851 3.2609 1.90222e-20)
(51.4119 3.63141 -1.55775e-21)
(51.3372 3.94859 2.2548e-20)
(51.2566 4.2089 -1.76945e-20)
(51.1647 4.41263 0)
(51.0579 4.56389 0)
(50.9354 4.671 -9.04973e-21)
(50.7971 4.74406 1.18917e-20)
(50.6455 4.79261 -8.10584e-22)
(50.485 4.82462 5.12536e-20)
(50.3212 4.84573 -2.56976e-20)
(50.1597 4.85927 8.21894e-21)
(50.0054 4.87117 -5.04365e-21)
(49.8628 4.88425 -4.84489e-20)
(49.7408 4.85099 5.53165e-20)
(49.6265 4.87469 0)
(49.505 5.03704 6.7259e-20)
(52.0874 -0.00522272 -6.07953e-20)
(52.0867 -0.000931357 1.81087e-20)
(52.0875 -0.00161651 2.05799e-22)
(52.0881 -0.00135987 -1.54703e-21)
(52.0888 -0.00134931 1.32125e-25)
(52.0895 -0.0014028 2.04664e-21)
(52.0903 -0.00151091 0)
(52.0913 -0.00165897 -3.06848e-21)
(52.0925 -0.0018286 -2.46648e-21)
(52.0938 -0.00198971 -1.8926e-21)
(52.0954 -0.00209069 5.68142e-21)
(52.0973 -0.00204405 2.86836e-26)
(52.0993 -0.00170742 0)
(52.1015 -0.000858901 -3.61451e-21)
(52.1036 0.000834428 -2.24006e-21)
(52.1056 0.00385632 -1.39162e-21)
(52.107 0.00889647 4.2753e-25)
(52.1074 0.0169375 1.20124e-21)
(52.1062 0.0294085 0)
(52.1029 0.0484365 -1.38009e-24)
(52.0963 0.0775126 1.55659e-24)
(52.0851 0.12154 1.54639e-21)
(52.0672 0.191673 3.91527e-24)
(52.0401 0.301842 -1.09268e-23)
(51.9994 0.483617 3.73985e-21)
(51.943 0.760954 9.06292e-21)
(51.8783 1.1183 -9.46952e-21)
(51.8082 1.53722 -3.65899e-20)
(51.7349 1.99438 -6.13317e-22)
(51.6606 2.46113 1.36648e-20)
(51.5867 2.91202 2.3923e-20)
(51.5138 3.32758 -2.70696e-23)
(51.4405 3.69488 -2.68452e-20)
(51.3639 4.00679 -1.98348e-20)
(51.2795 4.26106 7.53697e-21)
(51.1822 4.45941 -3.95166e-20)
(51.0691 4.60717 -1.4522e-20)
(50.9408 4.71358 1.79045e-20)
(50.7986 4.78903 -1.21193e-20)
(50.6457 4.84256 -2.43742e-20)
(50.4872 4.88112 7.04265e-20)
(50.3285 4.90919 -5.04099e-20)
(50.175 4.92903 6.4732e-20)
(50.0308 4.94604 -1.61894e-19)
(49.8999 4.96374 9.32561e-20)
(49.7915 4.92882 0)
(49.6906 4.95857 1.3137e-19)
(49.5848 5.12605 -1.34454e-19)
(52.0874 -0.00537277 6.08015e-20)
(52.0867 -0.0009762 -5.4041e-20)
(52.0875 -0.00167668 1.25925e-22)
(52.0881 -0.00141653 3.01859e-21)
(52.0888 -0.00140806 0)
(52.0895 -0.00146662 -2.04672e-21)
(52.0903 -0.00158246 0)
(52.0913 -0.00174083 3.06859e-21)
(52.0925 -0.00192308 2.46638e-21)
(52.0938 -0.00209839 1.89287e-21)
(52.0954 -0.00221341 -5.46668e-21)
(52.0973 -0.00217711 -1.89421e-21)
(52.0993 -0.00184062 2.57354e-21)
(52.1015 -0.000971139 1.76516e-21)
(52.1037 0.000781398 2.23999e-21)
(52.1056 0.00392599 1.39171e-21)
(52.1071 0.0091879 0)
(52.1076 0.0175984 0)
(52.1066 0.0306528 8.55492e-25)
(52.1034 0.0505688 1.09633e-21)
(52.0972 0.0809747 -1.69542e-21)
(52.0864 0.126939 0)
(52.0692 0.199984 0)
(52.0435 0.314366 0)
(52.0049 0.502364 -7.4035e-21)
(51.9516 0.788049 -1.83865e-20)
(51.8911 1.15473 9.59013e-21)
(51.8257 1.58277 1.83186e-20)
(51.757 2.04768 0)
(51.6867 2.51968 0)
(51.6159 2.97269 1.60903e-21)
(51.5445 3.38719 -1.97354e-20)
(51.4711 3.75081 2.68148e-20)
(51.3925 4.05751 -5.28485e-21)
(51.3045 4.3064 2.05403e-20)
(51.2022 4.50051 1.96447e-20)
(51.0837 4.64614 2.12237e-22)
(50.9511 4.75315 1.80153e-20)
(50.8068 4.83181 0)
(50.6548 4.89038 -6.20008e-20)
(50.5003 4.93469 4.85425e-20)
(50.3483 4.96813 0)
(50.2036 4.99217 0)
(50.0697 5.0119 4.85443e-21)
(49.9498 5.03182 0)
(49.8539 4.99302 6.64414e-21)
(49.7646 5.02646 -7.60342e-21)
(49.6719 5.19689 4.06305e-21)
(52.0874 -0.00552824 -6.18429e-20)
(52.0867 -0.00102248 -1.43087e-22)
(52.0875 -0.00173879 4.42386e-23)
(52.0881 -0.001475 -2.86817e-21)
(52.0888 -0.00146866 1.01927e-21)
(52.0895 -0.00153248 1.97451e-25)
(52.0903 -0.00165636 0)
(52.0913 -0.00182547 -2.089e-25)
(52.0924 -0.00202089 2.52113e-25)
(52.0938 -0.00221108 0)
(52.0954 -0.00234089 1.07419e-22)
(52.0973 -0.00231564 1.89433e-21)
(52.0993 -0.00197975 -2.57375e-21)
(52.1015 -0.0010891 3.19367e-21)
(52.1037 0.000724037 0)
(52.1057 0.00399468 0)
(52.1072 0.00948448 0)
(52.1078 0.018274 0)
(52.1069 0.0319249 -8.03194e-25)
(52.104 0.0527442 -1.09651e-21)
(52.0981 0.0844934 3.31583e-21)
(52.0879 0.132395 3.49793e-24)
(52.0715 0.208321 -3.74471e-24)
(52.0471 0.326808 3.64893e-21)
(52.0107 0.520728 3.71944e-21)
(51.9609 0.81417 1.83454e-20)
(51.905 1.1893 -1.94098e-22)
(51.8445 1.62535 2.43416e-22)
(51.7808 2.09674 -1.64346e-20)
(51.7148 2.57272 0)
(51.6471 3.02673 0)
(51.5773 3.43937 2.00007e-20)
(51.5037 3.799 -3.06938e-21)
(51.4233 4.10073 5.22015e-21)
(51.3319 4.34505 -4.78753e-20)
(51.2253 4.53609 1.90467e-20)
(51.1024 4.68086 1.31952e-20)
(50.9671 4.78945 -1.80458e-20)
(50.8225 4.8717 5.75549e-20)
(50.6733 4.9349 3.1195e-20)
(50.5242 4.98381 -8.4557e-21)
(50.3799 5.02094 -1.09905e-19)
(50.2442 5.0472 6.0418e-20)
(50.12 5.06762 -8.52429e-20)
(50.0101 5.08792 8.92813e-20)
(49.9251 5.04376 9.29081e-20)
(49.8454 5.0793 -1.16726e-19)
(49.7633 5.25139 0)
(52.0874 -0.00568927 1.2421e-19)
(52.0867 -0.00107026 3.66505e-20)
(52.0875 -0.00180289 -1.67618e-22)
(52.0881 -0.00153532 7.58079e-23)
(52.0887 -0.00153117 -1.01932e-21)
(52.0895 -0.00160044 -4.64221e-25)
(52.0903 -0.00173267 3.3584e-25)
(52.0913 -0.00191295 -2.6902e-21)
(52.0924 -0.00212211 -3.13669e-25)
(52.0938 -0.00232787 3.78398e-25)
(52.0954 -0.00247325 2.57251e-21)
(52.0973 -0.0024598 -1.44873e-25)
(52.0993 -0.00212502 2.3416e-21)
(52.1015 -0.00121313 -1.67878e-22)
(52.1038 0.0006618 -1.87938e-21)
(52.1058 0.00406148 -2.92425e-25)
(52.1073 0.00978463 3.47007e-25)
(52.108 0.0189616 0)
(52.1073 0.0332201 -7.51212e-25)
(52.1046 0.0549544 -3.24825e-25)
(52.099 0.0880544 -1.61912e-21)
(52.0894 0.137883 0)
(52.0739 0.216639 2.19724e-21)
(52.0509 0.339091 -7.24124e-21)
(52.017 0.538579 -2.16003e-23)
(51.971 0.839101 -9.17512e-21)
(51.9199 1.22171 9.63762e-21)
(51.8648 1.66455 -3.55234e-22)
(51.8063 2.14109 1.06581e-21)
(51.7449 2.61976 -7.6864e-22)
(51.6804 3.07371 -1.59253e-21)
(51.6123 3.48382 -3.29455e-20)
(51.5386 3.83931 2.61335e-20)
(51.4565 4.1365 5.14382e-21)
(51.3622 4.37713 2.09548e-20)
(51.252 4.56627 -3.76927e-20)
(51.1259 4.71125 -1.26722e-20)
(50.9895 4.82207 0)
(50.8464 4.90791 -2.67589e-22)
(50.7013 4.97503 -1.48081e-20)
(50.5586 5.02724 0)
(50.4221 5.06643 1.20672e-20)
(50.2949 5.09325 -7.35812e-21)
(50.1796 5.11282 9.27177e-21)
(50.0784 5.13217 0)
(50.0027 5.08186 6.4834e-21)
(49.931 5.11851 0)
(49.8571 5.29159 0)
(52.0874 -0.00585595 -6.23692e-20)
(52.0867 -0.00111963 -3.6938e-20)
(52.0875 -0.00186904 1.04674e-23)
(52.0881 -0.00159757 -1.16838e-21)
(52.0887 -0.00159565 0)
(52.0895 -0.00167054 0)
(52.0903 -0.00181144 -2.97182e-21)
(52.0913 -0.00200333 2.69031e-21)
(52.0924 -0.00222681 0)
(52.0938 -0.00244884 2.24792e-25)
(52.0954 -0.00261058 -2.71018e-25)
(52.0973 -0.00260973 3.3132e-21)
(52.0993 -0.00227664 -2.34175e-21)
(52.1016 -0.00134357 -3.02624e-21)
(52.1038 0.000594114 1.19756e-22)
(52.1059 0.00412538 0)
(52.1075 0.0100866 0)
(52.1083 0.0196581 -4.60894e-25)
(52.1077 0.0345331 5.37174e-25)
(52.1053 0.0571902 1.81789e-21)
(52.1001 0.0916418 -1.26902e-24)
(52.0911 0.143376 0)
(52.0765 0.224892 -4.34352e-21)
(52.0551 0.351138 3.60253e-21)
(52.0238 0.555784 0)
(51.9818 0.862628 0)
(51.9358 1.25163 -9.82996e-21)
(51.8864 1.69998 1.8624e-20)
(51.8336 2.18029 1.64076e-20)
(51.7769 2.66038 0)
(51.7159 3.11328 0)
(51.6495 3.52033 1.59489e-22)
(51.5758 3.87168 -3.31664e-20)
(51.4924 4.16488 8.85238e-21)
(51.3958 4.40279 -2.64404e-20)
(51.2831 4.59108 3.87387e-22)
(51.1551 4.73713 3.8604e-20)
(51.019 4.85052 -1.59558e-20)
(50.8787 4.93964 3.38161e-20)
(50.7387 5.00977 -1.28031e-19)
(50.6027 5.06399 7.19603e-20)
(50.4738 5.10384 0)
(50.3545 5.12993 7.34969e-21)
(50.2468 5.14758 0)
(50.153 5.16509 -1.83408e-19)
(50.085 5.10834 1.97435e-19)
(50.0198 5.14558 0)
(49.9524 5.31936 0)
(52.0874 -0.00602841 0)
(52.0868 -0.00117064 1.85407e-20)
(52.0875 -0.0019373 -7.89825e-23)
(52.0881 -0.00166179 2.48927e-21)
(52.0887 -0.00166215 1.65032e-21)
(52.0895 -0.00174286 -1.52194e-21)
(52.0903 -0.00189273 2.97195e-21)
(52.0913 -0.00209667 3.6488e-25)
(52.0924 -0.00233505 -3.97551e-21)
(52.0938 -0.00257406 3.06558e-21)
(52.0954 -0.00275298 -4.81543e-26)
(52.0973 -0.00276554 -3.31291e-21)
(52.0993 -0.00243482 -1.37145e-25)
(52.1016 -0.00148076 -2.69156e-21)
(52.1038 0.000520377 1.75991e-21)
(52.106 0.00418529 1.9383e-21)
(52.1076 0.0103884 -1.46935e-25)
(52.1085 0.0203601 0)
(52.1082 0.0358579 0)
(52.106 0.0594413 -1.81826e-21)
(52.1012 0.0952383 1.19877e-24)
(52.0928 0.148845 6.53547e-24)
(52.0793 0.233032 2.15048e-21)
(52.0596 0.362871 3.54448e-21)
(52.0311 0.572213 -4.45122e-23)
(51.9933 0.884544 5.57814e-23)
(51.9529 1.27878 9.62912e-21)
(51.9095 1.73127 -1.76655e-20)
(51.8626 2.21397 -8.87355e-22)
(51.811 2.69423 -1.17287e-20)
(51.7535 3.14519 -2.45348e-20)
(51.689 3.54877 2.19465e-20)
(51.6157 3.89614 -5.93509e-21)
(51.5313 4.186 -9.9131e-21)
(51.4334 4.42213 3.88169e-20)
(51.3192 4.61054 3.70667e-20)
(51.1906 4.75827 -2.23683e-20)
(51.056 4.87429 -6.4024e-20)
(50.9196 4.96617 0)
(50.7852 5.03837 1.40293e-20)
(50.6559 5.09347 -8.092e-20)
(50.5339 5.13288 7.77216e-20)
(50.4214 5.15733 1.20922e-19)
(50.3204 5.1724 -1.36844e-19)
(50.2326 5.18755 1.05302e-20)
(50.1711 5.1245 0)
(50.1111 5.16206 -6.66744e-21)
(50.0486 5.3365 -2.40344e-19)
(52.0873 -0.00620676 0)
(52.0868 -0.00122339 0)
(52.0875 -0.00200771 6.9838e-23)
(52.0881 -0.00172805 -1.09163e-21)
(52.0887 -0.00173072 -1.65034e-21)
(52.0895 -0.00181743 1.0543e-22)
(52.0903 -0.00197659 0)
(52.0913 -0.00219303 0)
(52.0924 -0.00244689 3.97493e-21)
(52.0938 -0.0027036 -1.43895e-22)
(52.0954 -0.00290052 4.28709e-21)
(52.0973 -0.00292735 3.52298e-25)
(52.0993 -0.00259972 1.99524e-21)
(52.1016 -0.00162502 1.6648e-22)
(52.1039 0.00043996 0)
(52.1061 0.00424005 -1.66965e-22)
(52.1078 0.010688 -1.05366e-25)
(52.1088 0.0210638 1.63484e-25)
(52.1086 0.0371878 5.97512e-25)
(52.1067 0.0616967 -1.68785e-24)
(52.1024 0.0988255 1.1293e-24)
(52.0947 0.15426 -2.53629e-21)
(52.0823 0.241011 2.08237e-21)
(52.0643 0.374211 -1.28658e-23)
(52.0388 0.587742 3.64026e-21)
(52.0057 0.904659 9.14622e-21)
(51.971 1.3029 3.70656e-22)
(51.9341 1.75811 8.65599e-21)
(51.8934 2.24179 0)
(51.847 2.72104 2.73154e-20)
(51.7934 3.16926 1.89275e-20)
(51.731 3.5691 3.8702e-21)
(51.6583 3.91277 -2.49035e-20)
(51.5738 4.19999 9.69235e-21)
(51.4754 4.43525 1.30747e-20)
(51.3609 4.62458 3.56422e-20)
(51.2329 4.77438 2.56391e-20)
(51.1009 4.8929 -1.46747e-20)
(50.969 4.98693 -4.22935e-20)
(50.8404 5.06031 1.07257e-19)
(50.7174 5.11535 -5.89537e-20)
(50.6016 5.15354 -7.73371e-20)
(50.4949 5.1758 8.7381e-20)
(50.3993 5.18799 1.35328e-19)
(50.3166 5.20052 -1.68978e-19)
(50.2604 5.13156 -5.74995e-21)
(50.2045 5.1694 6.65938e-21)
(50.1458 5.34455 2.32625e-19)
(52.0873 -0.0063911 -6.44066e-20)
(52.0868 -0.00127795 -4.50802e-25)
(52.0875 -0.00208034 2.41756e-24)
(52.0881 -0.0017964 3.12054e-21)
(52.0887 -0.00180141 -1.3901e-21)
(52.0895 -0.00189432 1.41612e-21)
(52.0903 -0.00206307 -1.28654e-25)
(52.0913 -0.00229245 1.43785e-25)
(52.0924 -0.00256237 3.9776e-25)
(52.0938 -0.0028375 -1.43805e-22)
(52.0954 -0.00305325 -8.36109e-21)
(52.0973 -0.00309523 -3.76766e-25)
(52.0994 -0.00277148 -5.75545e-21)
(52.1016 -0.00177665 1.65685e-22)
(52.1039 0.000352226 3.25215e-27)
(52.1062 0.0042884 -3.37686e-21)
(52.108 0.0109829 9.21837e-22)
(52.1091 0.0217649 0)
(52.1091 0.0385158 2.73589e-25)
(52.1075 0.0639445 -3.14411e-25)
(52.1037 0.102384 1.25675e-21)
(52.0968 0.159591 7.6799e-23)
(52.0855 0.248777 -2.0798e-21)
(52.0694 0.385082 -3.5129e-21)
(52.0471 0.602252 -7.3112e-21)
(52.0187 0.922801 -1.35135e-20)
(51.9903 1.32375 -1.94398e-20)
(51.9601 1.78024 -1.82368e-20)
(51.9259 2.26349 -1.19937e-21)
(51.8851 2.74061 -1.20926e-20)
(51.8355 3.18541 3.0431e-21)
(51.7756 3.58138 -8.38884e-21)
(51.7042 3.92171 2.39352e-20)
(51.6202 4.20703 8.35051e-21)
(51.5225 4.44226 -2.51734e-20)
(51.4089 4.63312 -4.92153e-22)
(51.2825 4.78517 0)
(51.154 4.9059 1.50018e-20)
(51.0269 5.00146 0)
(50.9039 5.07528 5.28014e-20)
(50.7865 5.1296 2.10567e-21)
(50.676 5.16606 -1.58098e-19)
(50.5743 5.18586 1.04467e-19)
(50.4831 5.19512 1.30618e-19)
(50.4045 5.20495 1.2893e-20)
(50.3527 5.1307 -1.7313e-19)
(50.3002 5.16885 0)
(50.2442 5.34484 -2.17443e-19)
(52.0873 -0.00658153 1.29305e-19)
(52.0868 -0.00133443 0)
(52.0875 -0.00215525 -3.03101e-22)
(52.0881 -0.00186691 -2.96631e-21)
(52.0887 -0.00187428 1.39018e-21)
(52.0895 -0.00197357 -1.20498e-21)
(52.0903 -0.00215223 -2.4535e-25)
(52.0913 -0.00239498 2.05822e-21)
(52.0924 -0.00268154 -1.17873e-25)
(52.0938 -0.00297579 -2.77703e-21)
(52.0954 -0.0032112 4.07322e-21)
(52.0973 -0.00326923 0)
(52.0994 -0.00295024 3.76017e-21)
(52.1016 -0.00193596 2.35993e-21)
(52.104 0.000256538 -2.57198e-21)
(52.1063 0.00432904 3.04585e-21)
(52.1082 0.0112708 -1.13283e-22)
(52.1094 0.0224592 1.8846e-26)
(52.1097 0.0398342 -1.46309e-25)
(52.1084 0.066172 -1.32908e-21)
(52.1051 0.105893 -2.44406e-21)
(52.099 0.164806 2.45547e-21)
(52.0889 0.256283 -2.00232e-21)
(52.0748 0.39541 3.47121e-21)
(52.0558 0.615637 3.62903e-21)
(52.0326 0.938824 1.47034e-23)
(52.0106 1.34115 9.58317e-21)
(51.9875 1.79744 8.39938e-21)
(51.9602 2.27892 8.72318e-22)
(51.9253 2.75285 1.92467e-21)
(51.8801 3.19367 -2.4108e-21)
(51.823 3.58572 0)
(51.7535 3.92315 3.02967e-20)
(51.6711 4.20729 -2.51745e-20)
(51.5751 4.4432 0)
(51.4636 4.63604 -1.67728e-20)
(51.3398 4.79038 2.29563e-20)
(51.2152 4.91297 -2.91982e-20)
(51.0931 5.00951 0)
(50.9752 5.0832 5.08892e-20)
(50.8628 5.13635 -7.87449e-20)
(50.7568 5.17084 -3.76151e-22)
(50.6591 5.18813 1.2905e-20)
(50.5715 5.19459 0)
(50.4962 5.20179 1.50699e-19)
(50.4481 5.12297 -1.72129e-19)
(50.3984 5.16156 1.95835e-19)
(50.3443 5.33849 -2.06216e-19)
(52.0873 -0.00677817 -6.49082e-20)
(52.0868 -0.00139292 0)
(52.0874 -0.00223249 6.82701e-22)
(52.0881 -0.00193963 2.65628e-21)
(52.0887 -0.0019494 0)
(52.0894 -0.00205523 1.05796e-22)
(52.0903 -0.0022441 2.14774e-21)
(52.0912 -0.00250066 -3.99129e-21)
(52.0924 -0.00280441 2.42558e-25)
(52.0938 -0.00311849 2.49064e-21)
(52.0954 -0.00337438 8.44655e-25)
(52.0973 -0.00344938 6.6768e-25)
(52.0994 -0.00313609 -8.03237e-25)
(52.1017 -0.0021032 0)