/*--------------------------------*- C++ -*----------------------------------*\
  =========                 |
  \\      /  F ield         | OpenFOAM: The Open Source CFD Toolbox
   \\    /   O peration     | Website:  https://openfoam.org
    \\  /    A nd           | Version:  10
     \\/     M anipulation  |
\*---------------------------------------------------------------------------*/
FoamFile
{
    format      ascii;
    class       volScalarField;
    location    "5";
    object      nut;
}
// * * * * * * * * * * * * * * * * * * * * * * * * * * * * * * * * * * * * * //

dimensions      [0 2 -1 0 0 0 0];

internalField   nonuniform List<scalar> 
38016
(
1.81599e-06
1.81599e-06
1.81599e-06
1.81599e-06
1.81599e-06
1.81599e-06
1.81599e-06
1.816e-06
1.816e-06
1.816e-06
1.816e-06
1.816e-06
1.816e-06
1.816e-06
1.816e-06
1.81599e-06
1.816e-06
1.816e-06
1.81602e-06
1.81604e-06
1.81608e-06
1.81616e-06
1.81629e-06
1.81653e-06
1.81701e-06
1.81787e-06
1.81911e-06
1.82075e-06
1.82278e-06
1.82515e-06
1.82784e-06
1.8308e-06
1.83401e-06
1.83743e-06
1.841e-06
1.84466e-06
1.84834e-06
1.85196e-06
1.85546e-06
1.85879e-06
1.86192e-06
1.86482e-06
1.86749e-06
1.8699e-06
1.87203e-06
1.87368e-06
1.87451e-06
1.87635e-06
1.81599e-06
1.81599e-06
1.81599e-06
1.81599e-06
1.81599e-06
1.81599e-06
1.816e-06
1.816e-06
1.816e-06
1.816e-06
1.816e-06
1.816e-06
1.816e-06
1.816e-06
1.816e-06
1.81599e-06
1.816e-06
1.81601e-06
1.81603e-06
1.81606e-06
1.81611e-06
1.81619e-06
1.81634e-06
1.81661e-06
1.81714e-06
1.81804e-06
1.81933e-06
1.82103e-06
1.82312e-06
1.82556e-06
1.82832e-06
1.83135e-06
1.83463e-06
1.8381e-06
1.8417e-06
1.84537e-06
1.84901e-06
1.85257e-06
1.85597e-06
1.85916e-06
1.86211e-06
1.86481e-06
1.86727e-06
1.86946e-06
1.87137e-06
1.87285e-06
1.87342e-06
1.87474e-06
1.81599e-06
1.81599e-06
1.81599e-06
1.81599e-06
1.81599e-06
1.81599e-06
1.816e-06
1.816e-06
1.816e-06
1.816e-06
1.816e-06
1.816e-06
1.816e-06
1.816e-06
1.816e-06
1.81599e-06
1.816e-06
1.81601e-06
1.81603e-06
1.81606e-06
1.81612e-06
1.81621e-06
1.81637e-06
1.81666e-06
1.81722e-06
1.81817e-06
1.81952e-06
1.82129e-06
1.82346e-06
1.82597e-06
1.8288e-06
1.83189e-06
1.83519e-06
1.83867e-06
1.84224e-06
1.84583e-06
1.84937e-06
1.85278e-06
1.85598e-06
1.85895e-06
1.86165e-06
1.86408e-06
1.86627e-06
1.86821e-06
1.8699e-06
1.87125e-06
1.87171e-06
1.87236e-06
1.81599e-06
1.81599e-06
1.81599e-06
1.81599e-06
1.81599e-06
1.816e-06
1.816e-06
1.816e-06
1.816e-06
1.816e-06
1.816e-06
1.816e-06
1.816e-06
1.816e-06
1.816e-06
1.81599e-06
1.816e-06
1.81601e-06
1.81603e-06
1.81607e-06
1.81613e-06
1.81622e-06
1.81639e-06
1.81669e-06
1.81728e-06
1.81827e-06
1.81968e-06
1.82153e-06
1.82379e-06
1.8264e-06
1.82934e-06
1.83253e-06
1.83593e-06
1.83948e-06
1.8431e-06
1.84671e-06
1.85024e-06
1.85359e-06
1.85671e-06
1.85956e-06
1.86211e-06
1.86439e-06
1.86641e-06
1.86819e-06
1.86978e-06
1.87112e-06
1.87169e-06
1.87204e-06
1.81599e-06
1.81599e-06
1.81599e-06
1.81599e-06
1.81599e-06
1.816e-06
1.816e-06
1.816e-06
1.816e-06
1.816e-06
1.816e-06
1.816e-06
1.816e-06
1.816e-06
1.81599e-06
1.81599e-06
1.816e-06
1.81602e-06
1.81604e-06
1.81607e-06
1.81614e-06
1.81624e-06
1.81642e-06
1.81674e-06
1.81736e-06
1.8184e-06
1.81989e-06
1.82183e-06
1.8242e-06
1.82693e-06
1.82998e-06
1.83328e-06
1.83677e-06
1.8404e-06
1.84406e-06
1.84768e-06
1.85118e-06
1.85446e-06
1.85747e-06
1.86017e-06
1.86255e-06
1.86462e-06
1.86644e-06
1.86803e-06
1.86948e-06
1.87082e-06
1.87156e-06
1.87167e-06
1.81599e-06
1.81599e-06
1.81599e-06
1.81599e-06
1.81599e-06
1.816e-06
1.816e-06
1.816e-06
1.816e-06
1.816e-06
1.816e-06
1.816e-06
1.816e-06
1.816e-06
1.81599e-06
1.816e-06
1.816e-06
1.81602e-06
1.81604e-06
1.81608e-06
1.81615e-06
1.81626e-06
1.81645e-06
1.81679e-06
1.81744e-06
1.81854e-06
1.8201e-06
1.82213e-06
1.8246e-06
1.82744e-06
1.8306e-06
1.83399e-06
1.83756e-06
1.84123e-06
1.84491e-06
1.8485e-06
1.85192e-06
1.85509e-06
1.85794e-06
1.86044e-06
1.86259e-06
1.86441e-06
1.86597e-06
1.86734e-06
1.86862e-06
1.86993e-06
1.8709e-06
1.87086e-06
1.816e-06
1.81599e-06
1.81599e-06
1.81599e-06
1.816e-06
1.816e-06
1.816e-06
1.816e-06
1.816e-06
1.816e-06
1.816e-06
1.816e-06
1.816e-06
1.816e-06
1.81599e-06
1.816e-06
1.816e-06
1.81602e-06
1.81605e-06
1.81609e-06
1.81616e-06
1.81628e-06
1.81648e-06
1.81684e-06
1.81752e-06
1.81867e-06
1.82031e-06
1.82243e-06
1.82499e-06
1.82794e-06
1.83119e-06
1.83467e-06
1.83829e-06
1.84198e-06
1.84564e-06
1.84917e-06
1.85248e-06
1.85548e-06
1.85814e-06
1.8604e-06
1.86228e-06
1.86382e-06
1.86509e-06
1.8662e-06
1.86729e-06
1.86858e-06
1.86984e-06
1.8698e-06
1.816e-06
1.81599e-06
1.81599e-06
1.81599e-06
1.816e-06
1.816e-06
1.816e-06
1.816e-06
1.816e-06
1.816e-06
1.816e-06
1.816e-06
1.816e-06
1.816e-06
1.81599e-06
1.816e-06
1.81601e-06
1.81602e-06
1.81605e-06
1.8161e-06
1.81617e-06
1.8163e-06
1.81651e-06
1.81689e-06
1.81761e-06
1.81881e-06
1.82052e-06
1.82272e-06
1.82539e-06
1.82843e-06
1.83176e-06
1.8353e-06
1.83897e-06
1.84266e-06
1.84627e-06
1.84971e-06
1.85288e-06
1.8557e-06
1.85812e-06
1.86012e-06
1.86171e-06
1.86295e-06
1.86393e-06
1.86477e-06
1.86568e-06
1.86694e-06
1.86856e-06
1.86871e-06
1.816e-06
1.816e-06
1.816e-06
1.816e-06
1.816e-06
1.816e-06
1.816e-06
1.816e-06
1.816e-06
1.816e-06
1.816e-06
1.816e-06
1.816e-06
1.816e-06
1.81599e-06
1.816e-06
1.81601e-06
1.81603e-06
1.81606e-06
1.8161e-06
1.81618e-06
1.81632e-06
1.81654e-06
1.81694e-06
1.81769e-06
1.81895e-06
1.82073e-06
1.82302e-06
1.82577e-06
1.8289e-06
1.83231e-06
1.83591e-06
1.83959e-06
1.84326e-06
1.8468e-06
1.85012e-06
1.85313e-06
1.85574e-06
1.85792e-06
1.85964e-06
1.86092e-06
1.86184e-06
1.86252e-06
1.86311e-06
1.86384e-06
1.86508e-06
1.86709e-06
1.86764e-06
1.816e-06
1.816e-06
1.816e-06
1.816e-06
1.816e-06
1.816e-06
1.816e-06
1.816e-06
1.816e-06
1.816e-06
1.816e-06
1.816e-06
1.816e-06
1.816e-06
1.81599e-06
1.816e-06
1.81601e-06
1.81603e-06
1.81606e-06
1.81611e-06
1.8162e-06
1.81634e-06
1.81657e-06
1.81699e-06
1.81778e-06
1.81909e-06
1.82094e-06
1.82331e-06
1.82615e-06
1.82936e-06
1.83283e-06
1.83647e-06
1.84015e-06
1.84377e-06
1.84722e-06
1.8504e-06
1.85322e-06
1.8556e-06
1.85751e-06
1.85894e-06
1.85991e-06
1.86051e-06
1.8609e-06
1.86124e-06
1.8618e-06
1.86303e-06
1.86545e-06
1.86658e-06
1.816e-06
1.816e-06
1.816e-06
1.816e-06
1.816e-06
1.816e-06
1.816e-06
1.816e-06
1.816e-06
1.816e-06
1.816e-06
1.816e-06
1.816e-06
1.816e-06
1.81599e-06
1.816e-06
1.81601e-06
1.81603e-06
1.81606e-06
1.81612e-06
1.81621e-06
1.81636e-06
1.81661e-06
1.81705e-06
1.81787e-06
1.81924e-06
1.82115e-06
1.8236e-06
1.82651e-06
1.82979e-06
1.83332e-06
1.83697e-06
1.84063e-06
1.84418e-06
1.84752e-06
1.85053e-06
1.85314e-06
1.85528e-06
1.85691e-06
1.85803e-06
1.85869e-06
1.85899e-06
1.85909e-06
1.8592e-06
1.85961e-06
1.86081e-06
1.86365e-06
1.86554e-06
1.816e-06
1.816e-06
1.816e-06
1.816e-06
1.816e-06
1.816e-06
1.816e-06
1.816e-06
1.816e-06
1.816e-06
1.816e-06
1.816e-06
1.816e-06
1.816e-06
1.81599e-06
1.816e-06
1.81601e-06
1.81603e-06
1.81607e-06
1.81613e-06
1.81622e-06
1.81638e-06
1.81664e-06
1.8171e-06
1.81796e-06
1.81937e-06
1.82135e-06
1.82387e-06
1.82686e-06
1.83019e-06
1.83375e-06
1.8374e-06
1.84102e-06
1.84448e-06
1.84768e-06
1.85051e-06
1.85289e-06
1.85477e-06
1.85612e-06
1.85693e-06
1.85728e-06
1.85728e-06
1.85712e-06
1.85702e-06
1.85729e-06
1.85846e-06
1.86171e-06
1.8645e-06
1.816e-06
1.816e-06
1.816e-06
1.816e-06
1.816e-06
1.816e-06
1.816e-06
1.816e-06
1.816e-06
1.816e-06
1.816e-06
1.816e-06
1.816e-06
1.816e-06
1.81599e-06
1.816e-06
1.81601e-06
1.81604e-06
1.81608e-06
1.81614e-06
1.81624e-06
1.8164e-06
1.81668e-06
1.81716e-06
1.81805e-06
1.81951e-06
1.82155e-06
1.82413e-06
1.82718e-06
1.83056e-06
1.83413e-06
1.83776e-06
1.84131e-06
1.84467e-06
1.8477e-06
1.85033e-06
1.85248e-06
1.85409e-06
1.85515e-06
1.85566e-06
1.8557e-06
1.85542e-06
1.85502e-06
1.85474e-06
1.85488e-06
1.85602e-06
1.85963e-06
1.86347e-06
1.816e-06
1.816e-06
1.816e-06
1.816e-06
1.816e-06
1.816e-06
1.816e-06
1.816e-06
1.816e-06
1.816e-06
1.816e-06
1.816e-06
1.816e-06
1.816e-06
1.81599e-06
1.816e-06
1.81601e-06
1.81604e-06
1.81608e-06
1.81615e-06
1.81625e-06
1.81643e-06
1.81671e-06
1.81721e-06
1.81813e-06
1.81964e-06
1.82173e-06
1.82437e-06
1.82747e-06
1.83088e-06
1.83445e-06
1.83804e-06
1.8415e-06
1.84472e-06
1.84758e-06
1.84999e-06
1.85189e-06
1.85323e-06
1.854e-06
1.85422e-06
1.85397e-06
1.85343e-06
1.85283e-06
1.85239e-06
1.85243e-06
1.85352e-06
1.85745e-06
1.86242e-06
1.816e-06
1.816e-06
1.816e-06
1.816e-06
1.816e-06
1.816e-06
1.816e-06
1.816e-06
1.816e-06
1.816e-06
1.816e-06
1.816e-06
1.816e-06
1.816e-06
1.81599e-06
1.816e-06
1.81602e-06
1.81604e-06
1.81609e-06
1.81616e-06
1.81627e-06
1.81645e-06
1.81675e-06
1.81726e-06
1.81821e-06
1.81976e-06
1.8219e-06
1.82459e-06
1.82772e-06
1.83114e-06
1.83469e-06
1.83822e-06
1.84158e-06
1.84465e-06
1.84731e-06
1.8495e-06
1.85115e-06
1.85221e-06
1.8527e-06
1.85263e-06
1.85211e-06
1.85135e-06
1.85057e-06
1.85002e-06
1.84998e-06
1.85101e-06
1.85519e-06
1.86137e-06
1.816e-06
1.816e-06
1.816e-06
1.816e-06
1.816e-06
1.816e-06
1.816e-06
1.816e-06
1.816e-06
1.816e-06
1.816e-06
1.816e-06
1.816e-06
1.816e-06
1.81599e-06
1.816e-06
1.81602e-06
1.81605e-06
1.81609e-06
1.81617e-06
1.81628e-06
1.81647e-06
1.81678e-06
1.81731e-06
1.81829e-06
1.81987e-06
1.82205e-06
1.82478e-06
1.82793e-06
1.83134e-06
1.83485e-06
1.8383e-06
1.84153e-06
1.84443e-06
1.8469e-06
1.84885e-06
1.85024e-06
1.85104e-06
1.85125e-06
1.85091e-06
1.85015e-06
1.84919e-06
1.84829e-06
1.84767e-06
1.84756e-06
1.84851e-06
1.85286e-06
1.86029e-06
1.816e-06
1.816e-06
1.816e-06
1.816e-06
1.816e-06
1.816e-06
1.816e-06
1.816e-06
1.816e-06
1.816e-06
1.816e-06
1.816e-06
1.816e-06
1.816e-06
1.81599e-06
1.816e-06
1.81602e-06
1.81605e-06
1.8161e-06
1.81618e-06
1.8163e-06
1.81649e-06
1.81682e-06
1.81736e-06
1.81836e-06
1.81997e-06
1.82218e-06
1.82493e-06
1.82809e-06
1.83148e-06
1.83493e-06
1.83827e-06
1.84136e-06
1.84408e-06
1.84633e-06
1.84804e-06
1.84918e-06
1.84971e-06
1.84966e-06
1.84907e-06
1.8481e-06
1.847e-06
1.84603e-06
1.84537e-06
1.84522e-06
1.84606e-06
1.85051e-06
1.85918e-06
1.816e-06
1.816e-06
1.816e-06
1.816e-06
1.816e-06
1.816e-06
1.816e-06
1.816e-06
1.816e-06
1.816e-06
1.816e-06
1.816e-06
1.816e-06
1.816e-06
1.81599e-06
1.816e-06
1.81602e-06
1.81605e-06
1.8161e-06
1.81618e-06
1.81631e-06
1.81652e-06
1.81685e-06
1.81741e-06
1.81842e-06
1.82006e-06
1.82229e-06
1.82505e-06
1.82819e-06
1.83154e-06
1.83491e-06
1.83813e-06
1.84106e-06
1.84358e-06
1.84561e-06
1.84708e-06
1.84797e-06
1.84826e-06
1.84795e-06
1.84714e-06
1.846e-06
1.8448e-06
1.84382e-06
1.84318e-06
1.843e-06
1.84371e-06
1.84814e-06
1.85803e-06
1.816e-06
1.816e-06
1.816e-06
1.816e-06
1.816e-06
1.816e-06
1.816e-06
1.816e-06
1.816e-06
1.816e-06
1.816e-06
1.816e-06
1.816e-06
1.816e-06
1.81599e-06
1.816e-06
1.81602e-06
1.81606e-06
1.81611e-06
1.81619e-06
1.81633e-06
1.81654e-06
1.81688e-06
1.81745e-06
1.81848e-06
1.82013e-06
1.82237e-06
1.82513e-06
1.82824e-06
1.83153e-06
1.83479e-06
1.83787e-06
1.84062e-06
1.84294e-06
1.84475e-06
1.84599e-06
1.84663e-06
1.84667e-06
1.84614e-06
1.84514e-06
1.84387e-06
1.84264e-06
1.8417e-06
1.84115e-06
1.84095e-06
1.84149e-06
1.8458e-06
1.85685e-06
1.816e-06
1.816e-06
1.816e-06
1.816e-06
1.816e-06
1.816e-06
1.816e-06
1.816e-06
1.816e-06
1.816e-06
1.816e-06
1.816e-06
1.816e-06
1.816e-06
1.81599e-06
1.816e-06
1.81602e-06
1.81606e-06
1.81611e-06
1.8162e-06
1.81634e-06
1.81656e-06
1.81691e-06
1.81748e-06
1.81852e-06
1.82018e-06
1.82242e-06
1.82515e-06
1.82822e-06
1.83142e-06
1.83457e-06
1.83749e-06
1.84005e-06
1.84217e-06
1.84375e-06
1.84475e-06
1.84516e-06
1.84498e-06
1.84425e-06
1.84308e-06
1.84175e-06
1.84055e-06
1.83973e-06
1.83932e-06
1.83911e-06
1.83944e-06
1.84351e-06
1.85562e-06
1.816e-06
1.816e-06
1.816e-06
1.816e-06
1.816e-06
1.816e-06
1.816e-06
1.816e-06
1.816e-06
1.816e-06
1.816e-06
1.816e-06
1.816e-06
1.816e-06
1.81599e-06
1.816e-06
1.81602e-06
1.81606e-06
1.81612e-06
1.81621e-06
1.81635e-06
1.81658e-06
1.81693e-06
1.81751e-06
1.81855e-06
1.82021e-06
1.82243e-06
1.82513e-06
1.82813e-06
1.83123e-06
1.83423e-06
1.83698e-06
1.83936e-06
1.84126e-06
1.84262e-06
1.8434e-06
1.84358e-06
1.84319e-06
1.84228e-06
1.84101e-06
1.83966e-06
1.83858e-06
1.83796e-06
1.83774e-06
1.83752e-06
1.83758e-06
1.8413e-06
1.85434e-06
1.816e-06
1.816e-06
1.816e-06
1.816e-06
1.816e-06
1.816e-06
1.816e-06
1.816e-06
1.816e-06
1.816e-06
1.816e-06
1.816e-06
1.816e-06
1.816e-06
1.81599e-06
1.816e-06
1.81603e-06
1.81606e-06
1.81613e-06
1.81622e-06
1.81637e-06
1.81659e-06
1.81695e-06
1.81753e-06
1.81857e-06
1.82021e-06
1.8224e-06
1.82505e-06
1.82796e-06
1.83094e-06
1.83379e-06
1.83636e-06
1.83853e-06
1.84022e-06
1.84136e-06
1.84192e-06
1.8419e-06
1.84132e-06
1.84028e-06
1.83894e-06
1.83766e-06
1.83678e-06
1.83644e-06
1.83647e-06
1.83622e-06
1.83594e-06
1.83921e-06
1.853e-06
1.816e-06
1.816e-06
1.816e-06
1.816e-06
1.816e-06
1.816e-06
1.816e-06
1.816e-06
1.816e-06
1.816e-06
1.816e-06
1.816e-06
1.816e-06
1.816e-06
1.81599e-06
1.816e-06
1.81603e-06
1.81607e-06
1.81613e-06
1.81623e-06
1.81638e-06
1.81661e-06
1.81697e-06
1.81755e-06
1.81858e-06
1.82019e-06
1.82233e-06
1.82491e-06
1.82772e-06
1.83056e-06
1.83324e-06
1.83561e-06
1.83758e-06
1.83906e-06
1.84e-06
1.84035e-06
1.84014e-06
1.8394e-06
1.83825e-06
1.83691e-06
1.83579e-06
1.8352e-06
1.8352e-06
1.83554e-06
1.83523e-06
1.8345e-06
1.83723e-06
1.8516e-06
1.816e-06
1.816e-06
1.816e-06
1.816e-06
1.816e-06
1.816e-06
1.816e-06
1.816e-06
1.816e-06
1.816e-06
1.816e-06
1.816e-06
1.816e-06
1.816e-06
1.816e-06
1.816e-06
1.81603e-06
1.81607e-06
1.81613e-06
1.81624e-06
1.81639e-06
1.81662e-06
1.81698e-06
1.81756e-06
1.81857e-06
1.82014e-06
1.82222e-06
1.8247e-06
1.82739e-06
1.83008e-06
1.83257e-06
1.83475e-06
1.83652e-06
1.8378e-06
1.83853e-06
1.83868e-06
1.8383e-06
1.83743e-06
1.83623e-06
1.83496e-06
1.83408e-06
1.8339e-06
1.83432e-06
1.83496e-06
1.83453e-06
1.83324e-06
1.83538e-06
1.85013e-06
1.816e-06
1.816e-06
1.816e-06
1.816e-06
1.816e-06
1.816e-06
1.816e-06
1.816e-06
1.816e-06
1.816e-06
1.816e-06
1.81601e-06
1.81601e-06
1.816e-06
1.816e-06
1.816e-06
1.81603e-06
1.81607e-06
1.81614e-06
1.81624e-06
1.8164e-06
1.81663e-06
1.81699e-06
1.81756e-06
1.81854e-06
1.82006e-06
1.82206e-06
1.82444e-06
1.82699e-06
1.8295e-06
1.83181e-06
1.83378e-06
1.83535e-06
1.83643e-06
1.83697e-06
1.83695e-06
1.83642e-06
1.83545e-06
1.83426e-06
1.83313e-06
1.83261e-06
1.83292e-06
1.83382e-06
1.83482e-06
1.83424e-06
1.83221e-06
1.83358e-06
1.8486e-06
1.816e-06
1.816e-06
1.816e-06
1.816e-06
1.816e-06
1.816e-06
1.816e-06
1.816e-06
1.816e-06
1.816e-06
1.816e-06
1.81601e-06
1.81601e-06
1.816e-06
1.816e-06
1.816e-06
1.81603e-06
1.81607e-06
1.81614e-06
1.81625e-06
1.8164e-06
1.81664e-06
1.817e-06
1.81755e-06
1.8185e-06
1.81995e-06
1.82186e-06
1.82411e-06
1.82651e-06
1.82884e-06
1.83095e-06
1.83272e-06
1.83408e-06
1.83498e-06
1.83535e-06
1.83516e-06
1.83451e-06
1.8335e-06
1.83237e-06
1.83148e-06
1.83141e-06
1.83233e-06
1.83378e-06
1.83528e-06
1.83458e-06
1.83158e-06
1.83177e-06
1.84701e-06
1.816e-06
1.816e-06
1.816e-06
1.816e-06
1.816e-06
1.816e-06
1.816e-06
1.816e-06
1.816e-06
1.816e-06
1.81601e-06
1.81601e-06
1.81601e-06
1.816e-06
1.816e-06
1.816e-06
1.81603e-06
1.81607e-06
1.81614e-06
1.81625e-06
1.81641e-06
1.81664e-06
1.817e-06
1.81754e-06
1.81845e-06
1.81982e-06
1.82162e-06
1.82373e-06
1.82595e-06
1.82809e-06
1.82999e-06
1.83156e-06
1.83274e-06
1.83347e-06
1.83367e-06
1.83334e-06
1.8326e-06
1.83159e-06
1.8306e-06
1.83005e-06
1.83056e-06
1.83216e-06
1.83436e-06
1.83654e-06
1.8357e-06
1.83149e-06
1.83009e-06
1.84537e-06
1.816e-06
1.816e-06
1.816e-06
1.816e-06
1.816e-06
1.816e-06
1.816e-06
1.816e-06
1.816e-06
1.816e-06
1.81601e-06
1.81601e-06
1.81601e-06
1.816e-06
1.816e-06
1.816e-06
1.81603e-06
1.81608e-06
1.81615e-06
1.81625e-06
1.81641e-06
1.81664e-06
1.81699e-06
1.81751e-06
1.81838e-06
1.81966e-06
1.82133e-06
1.82328e-06
1.82533e-06
1.82727e-06
1.82897e-06
1.83034e-06
1.83134e-06
1.8319e-06
1.83196e-06
1.83151e-06
1.83073e-06
1.82978e-06
1.82902e-06
1.8289e-06
1.83011e-06
1.83252e-06
1.83574e-06
1.83886e-06
1.83787e-06
1.83201e-06
1.8287e-06
1.84369e-06
1.816e-06
1.816e-06
1.816e-06
1.816e-06
1.816e-06
1.816e-06
1.816e-06
1.816e-06
1.816e-06
1.816e-06
1.81601e-06
1.81601e-06
1.81601e-06
1.81601e-06
1.816e-06
1.816e-06
1.81603e-06
1.81608e-06
1.81615e-06
1.81625e-06
1.81641e-06
1.81664e-06
1.81698e-06
1.81747e-06
1.81829e-06
1.81949e-06
1.82101e-06
1.82279e-06
1.82464e-06
1.82638e-06
1.82787e-06
1.82905e-06
1.82989e-06
1.83031e-06
1.83023e-06
1.8297e-06
1.82893e-06
1.8281e-06
1.82767e-06
1.82811e-06
1.83013e-06
1.8336e-06
1.83814e-06
1.84199e-06
1.84083e-06
1.83348e-06
1.82761e-06
1.84196e-06
1.816e-06
1.816e-06
1.816e-06
1.816e-06
1.816e-06
1.816e-06
1.816e-06
1.816e-06
1.816e-06
1.81601e-06
1.81601e-06
1.81601e-06
1.81601e-06
1.81601e-06
1.816e-06
1.816e-06
1.81603e-06
1.81608e-06
1.81615e-06
1.81625e-06
1.81641e-06
1.81663e-06
1.81696e-06
1.81743e-06
1.81819e-06
1.81929e-06
1.82066e-06
1.82225e-06
1.8239e-06
1.82544e-06
1.82673e-06
1.82773e-06
1.82841e-06
1.8287e-06
1.82852e-06
1.82794e-06
1.82723e-06
1.82661e-06
1.82661e-06
1.82773e-06
1.83071e-06
1.83564e-06
1.84137e-06
1.84595e-06
1.84464e-06
1.83559e-06
1.82687e-06
1.8402e-06
1.816e-06
1.816e-06
1.816e-06
1.816e-06
1.816e-06
1.816e-06
1.816e-06
1.816e-06
1.816e-06
1.81601e-06
1.81601e-06
1.81601e-06
1.81601e-06
1.81601e-06
1.816e-06
1.816e-06
1.81603e-06
1.81608e-06
1.81615e-06
1.81625e-06
1.81641e-06
1.81662e-06
1.81693e-06
1.81737e-06
1.81807e-06
1.81907e-06
1.82028e-06
1.82168e-06
1.82313e-06
1.82446e-06
1.82555e-06
1.82638e-06
1.82692e-06
1.82712e-06
1.82685e-06
1.82626e-06
1.82569e-06
1.82537e-06
1.82591e-06
1.82784e-06
1.83206e-06
1.83845e-06
1.8457e-06
1.85022e-06
1.84877e-06
1.83842e-06
1.82663e-06
1.83844e-06
1.816e-06
1.816e-06
1.816e-06
1.816e-06
1.816e-06
1.816e-06
1.816e-06
1.816e-06
1.816e-06
1.81601e-06
1.81601e-06
1.81601e-06
1.81601e-06
1.81601e-06
1.816e-06
1.816e-06
1.81603e-06
1.81607e-06
1.81614e-06
1.81625e-06
1.8164e-06
1.81661e-06
1.8169e-06
1.81731e-06
1.81794e-06
1.81884e-06
1.8199e-06
1.82109e-06
1.82233e-06
1.82346e-06
1.82437e-06
1.82504e-06
1.82546e-06
1.82557e-06
1.82524e-06
1.82471e-06
1.82436e-06
1.82445e-06
1.82566e-06
1.82855e-06
1.83421e-06
1.84209e-06
1.84983e-06
1.85425e-06
1.85246e-06
1.84213e-06
1.82715e-06
1.83672e-06
1.816e-06
1.816e-06
1.816e-06
1.816e-06
1.816e-06
1.816e-06
1.816e-06
1.816e-06
1.816e-06
1.81601e-06
1.81601e-06
1.81601e-06
1.81601e-06
1.81601e-06
1.816e-06
1.816e-06
1.81603e-06
1.81607e-06
1.81614e-06
1.81624e-06
1.81639e-06
1.81659e-06
1.81686e-06
1.81723e-06
1.8178e-06
1.8186e-06
1.81951e-06
1.8205e-06
1.82153e-06
1.82246e-06
1.82319e-06
1.82372e-06
1.82404e-06
1.82408e-06
1.82374e-06
1.82332e-06
1.8233e-06
1.82392e-06
1.82594e-06
1.82999e-06
1.83712e-06
1.84583e-06
1.85363e-06
1.85806e-06
1.85593e-06
1.84499e-06
1.82809e-06
1.83507e-06
1.816e-06
1.816e-06
1.816e-06
1.816e-06
1.816e-06
1.816e-06
1.816e-06
1.816e-06
1.816e-06
1.81601e-06
1.81601e-06
1.81601e-06
1.81601e-06
1.81601e-06
1.816e-06
1.816e-06
1.81603e-06
1.81607e-06
1.81614e-06
1.81624e-06
1.81638e-06
1.81656e-06
1.81681e-06
1.81715e-06
1.81765e-06
1.81834e-06
1.81911e-06
1.81993e-06
1.82075e-06
1.82149e-06
1.82206e-06
1.82246e-06
1.8227e-06
1.8227e-06
1.82237e-06
1.82216e-06
1.82259e-06
1.82387e-06
1.82688e-06
1.83215e-06
1.84043e-06
1.84931e-06
1.85727e-06
1.86164e-06
1.85913e-06
1.84754e-06
1.82953e-06
1.83356e-06
1.816e-06
1.816e-06
1.816e-06
1.816e-06
1.816e-06
1.816e-06
1.816e-06
1.816e-06
1.81601e-06
1.81601e-06
1.81601e-06
1.81601e-06
1.81601e-06
1.81601e-06
1.816e-06
1.816e-06
1.81602e-06
1.81607e-06
1.81613e-06
1.81623e-06
1.81636e-06
1.81654e-06
1.81677e-06
1.81707e-06
1.8175e-06
1.81808e-06
1.81871e-06
1.81937e-06
1.82001e-06
1.82057e-06
1.82099e-06
1.82128e-06
1.82145e-06
1.82144e-06
1.82116e-06
1.82127e-06
1.82231e-06
1.8244e-06
1.82841e-06
1.83512e-06
1.84354e-06
1.85259e-06
1.86067e-06
1.86495e-06
1.86203e-06
1.84983e-06
1.83195e-06
1.83262e-06
1.816e-06
1.816e-06
1.816e-06
1.816e-06
1.816e-06
1.816e-06
1.816e-06
1.816e-06
1.81601e-06
1.81601e-06
1.81601e-06
1.81601e-06
1.81601e-06
1.81601e-06
1.81601e-06
1.816e-06
1.81602e-06
1.81606e-06
1.81613e-06
1.81622e-06
1.81634e-06
1.8165e-06
1.81671e-06
1.81697e-06
1.81734e-06
1.81782e-06
1.81832e-06
1.81883e-06
1.81932e-06
1.81973e-06
1.82001e-06
1.8202e-06
1.82033e-06
1.82032e-06
1.82016e-06
1.82073e-06
1.82256e-06
1.82548e-06
1.8306e-06
1.83786e-06
1.84639e-06
1.85563e-06
1.86379e-06
1.86794e-06
1.86458e-06
1.85177e-06
1.83417e-06
1.83204e-06
1.816e-06
1.816e-06
1.816e-06
1.816e-06
1.816e-06
1.816e-06
1.816e-06
1.816e-06
1.81601e-06
1.81601e-06
1.81601e-06
1.81601e-06
1.81601e-06
1.81601e-06
1.81601e-06
1.816e-06
1.81602e-06
1.81606e-06
1.81612e-06
1.81621e-06
1.81632e-06
1.81647e-06
1.81665e-06
1.81688e-06
1.81717e-06
1.81756e-06
1.81795e-06
1.81833e-06
1.81868e-06
1.81898e-06
1.81914e-06
1.81926e-06
1.81936e-06
1.81939e-06
1.81939e-06
1.82058e-06
1.82333e-06
1.82713e-06
1.83296e-06
1.84029e-06
1.849e-06
1.85838e-06
1.86658e-06
1.87055e-06
1.86674e-06
1.85334e-06
1.83528e-06
1.83151e-06
1.816e-06
1.816e-06
1.816e-06
1.816e-06
1.816e-06
1.816e-06
1.816e-06
1.816e-06
1.81601e-06
1.81601e-06
1.81601e-06
1.81601e-06
1.81601e-06
1.81601e-06
1.81601e-06
1.816e-06
1.81602e-06
1.81606e-06
1.81611e-06
1.81619e-06
1.8163e-06
1.81643e-06
1.81659e-06
1.81678e-06
1.81701e-06
1.81731e-06
1.8176e-06
1.81786e-06
1.81811e-06
1.81832e-06
1.81841e-06
1.81848e-06
1.81857e-06
1.81865e-06
1.81889e-06
1.82088e-06
1.82462e-06
1.82912e-06
1.83509e-06
1.8425e-06
1.85135e-06
1.86082e-06
1.869e-06
1.87275e-06
1.86848e-06
1.85453e-06
1.83625e-06
1.83159e-06
1.816e-06
1.816e-06
1.816e-06
1.816e-06
1.816e-06
1.816e-06
1.816e-06
1.816e-06
1.81601e-06
1.81601e-06
1.81601e-06
1.81601e-06
1.81602e-06
1.81601e-06
1.81601e-06
1.816e-06
1.81602e-06
1.81605e-06
1.8161e-06
1.81618e-06
1.81628e-06
1.81639e-06
1.81653e-06
1.81668e-06
1.81686e-06
1.81708e-06
1.81728e-06
1.81745e-06
1.81761e-06
1.81775e-06
1.81781e-06
1.81787e-06
1.81797e-06
1.81813e-06
1.81867e-06
1.82158e-06
1.82624e-06
1.83098e-06
1.83693e-06
1.84445e-06
1.85338e-06
1.86288e-06
1.871e-06
1.87449e-06
1.86975e-06
1.85532e-06
1.83701e-06
1.83341e-06
1.816e-06
1.816e-06
1.816e-06
1.816e-06
1.816e-06
1.816e-06
1.816e-06
1.81601e-06
1.81601e-06
1.81601e-06
1.81601e-06
1.81601e-06
1.81602e-06
1.81602e-06
1.81601e-06
1.816e-06
1.81601e-06
1.81605e-06
1.8161e-06
1.81616e-06
1.81625e-06
1.81635e-06
1.81647e-06
1.81658e-06
1.81671e-06
1.81686e-06
1.81699e-06
1.8171e-06
1.81721e-06
1.8173e-06
1.81735e-06
1.81742e-06
1.81757e-06
1.81784e-06
1.81874e-06
1.82262e-06
1.82775e-06
1.83248e-06
1.83852e-06
1.84611e-06
1.85506e-06
1.86454e-06
1.87253e-06
1.87573e-06
1.87053e-06
1.85569e-06
1.83756e-06
1.83591e-06
1.816e-06
1.816e-06
1.816e-06
1.816e-06
1.816e-06
1.816e-06
1.816e-06
1.81601e-06
1.81601e-06
1.81601e-06
1.81601e-06
1.81602e-06
1.81602e-06
1.81602e-06
1.81601e-06
1.816e-06
1.81601e-06
1.81604e-06
1.81609e-06
1.81615e-06
1.81622e-06
1.81631e-06
1.8164e-06
1.81649e-06
1.81658e-06
1.81668e-06
1.81675e-06
1.81683e-06
1.81691e-06
1.81699e-06
1.81704e-06
1.81715e-06
1.81737e-06
1.81776e-06
1.81906e-06
1.8236e-06
1.82893e-06
1.83373e-06
1.83984e-06
1.84744e-06
1.85636e-06
1.86575e-06
1.87356e-06
1.87644e-06
1.87079e-06
1.85563e-06
1.83788e-06
1.83782e-06
1.816e-06
1.816e-06
1.816e-06
1.816e-06
1.816e-06
1.816e-06
1.816e-06
1.81601e-06
1.81601e-06
1.81601e-06
1.81601e-06
1.81602e-06
1.81602e-06
1.81602e-06
1.81601e-06
1.816e-06
1.81601e-06
1.81603e-06
1.81608e-06
1.81613e-06
1.8162e-06
1.81627e-06
1.81634e-06
1.8164e-06
1.81646e-06
1.81652e-06
1.81656e-06
1.81663e-06
1.81672e-06
1.81681e-06
1.8169e-06
1.81707e-06
1.81737e-06
1.81789e-06
1.81954e-06
1.82435e-06
1.82984e-06
1.83472e-06
1.84085e-06
1.84842e-06
1.85725e-06
1.86649e-06
1.87406e-06
1.87658e-06
1.87052e-06
1.85515e-06
1.83804e-06
1.84011e-06
1.816e-06
1.816e-06
1.816e-06
1.816e-06
1.816e-06
1.816e-06
1.816e-06
1.81601e-06
1.81601e-06
1.81601e-06
1.81601e-06
1.81602e-06
1.81602e-06
1.81602e-06
1.81601e-06
1.81601e-06
1.81601e-06
1.81603e-06
1.81607e-06
1.81611e-06
1.81617e-06
1.81623e-06
1.81628e-06
1.81633e-06
1.81636e-06
1.8164e-06
1.81644e-06
1.81652e-06
1.81663e-06
1.81677e-06
1.81691e-06
1.81716e-06
1.81755e-06
1.81818e-06
1.81995e-06
1.82484e-06
1.83049e-06
1.83542e-06
1.84153e-06
1.84903e-06
1.8577e-06
1.86673e-06
1.87401e-06
1.87615e-06
1.8697e-06
1.85425e-06
1.83802e-06
1.84302e-06
1.816e-06
1.816e-06
1.816e-06
1.816e-06
1.816e-06
1.816e-06
1.816e-06
1.81601e-06
1.81601e-06
1.81601e-06
1.81601e-06
1.81602e-06
1.81602e-06
1.81602e-06
1.81602e-06
1.81601e-06
1.81601e-06
1.81602e-06
1.81606e-06
1.8161e-06
1.81614e-06
1.81619e-06
1.81623e-06
1.81626e-06
1.81629e-06
1.81632e-06
1.81638e-06
1.81649e-06
1.81666e-06
1.81685e-06
1.81705e-06
1.81737e-06
1.81784e-06
1.81849e-06
1.8202e-06
1.82509e-06
1.83086e-06
1.83581e-06
1.84187e-06
1.84924e-06
1.85771e-06
1.86646e-06
1.8734e-06
1.87514e-06
1.86835e-06
1.85295e-06
1.83784e-06
1.84627e-06
1.816e-06
1.816e-06
1.816e-06
1.816e-06
1.816e-06
1.816e-06
1.81601e-06
1.81601e-06
1.81601e-06
1.81601e-06
1.81601e-06
1.81602e-06
1.81602e-06
1.81602e-06
1.81602e-06
1.81601e-06
1.81601e-06
1.81602e-06
1.81605e-06
1.81608e-06
1.81612e-06
1.81616e-06
1.81619e-06
1.81622e-06
1.81625e-06
1.81629e-06
1.81638e-06
1.81654e-06
1.81676e-06
1.81698e-06
1.81722e-06
1.81757e-06
1.81809e-06
1.81872e-06
1.8203e-06
1.82511e-06
1.83093e-06
1.83587e-06
1.84186e-06
1.84907e-06
1.85727e-06
1.86569e-06
1.87223e-06
1.87357e-06
1.86651e-06
1.8513e-06
1.83747e-06
1.8489e-06
1.81601e-06
1.81601e-06
1.816e-06
1.816e-06
1.816e-06
1.816e-06
1.81601e-06
1.81601e-06
1.81601e-06
1.81601e-06
1.81602e-06
1.81602e-06
1.81602e-06
1.81602e-06
1.81602e-06
1.81601e-06
1.81601e-06
1.81602e-06
1.81604e-06
1.81607e-06
1.8161e-06
1.81613e-06
1.81616e-06
1.81619e-06
1.81624e-06
1.81631e-06
1.81643e-06
1.81662e-06
1.81686e-06
1.8171e-06
1.81736e-06
1.81772e-06
1.81823e-06
1.81889e-06
1.82033e-06
1.82493e-06
1.83071e-06
1.83562e-06
1.84149e-06
1.8485e-06
1.85639e-06
1.86442e-06
1.87055e-06
1.87148e-06
1.86421e-06
1.84934e-06
1.83697e-06
1.85089e-06
1.81601e-06
1.81601e-06
1.816e-06
1.816e-06
1.816e-06
1.816e-06
1.81601e-06
1.81601e-06
1.81601e-06
1.81601e-06
1.81602e-06
1.81602e-06
1.81602e-06
1.81602e-06
1.81602e-06
1.81602e-06
1.81601e-06
1.81601e-06
1.81603e-06
1.81605e-06
1.81608e-06
1.81611e-06
1.81614e-06
1.81619e-06
1.81627e-06
1.81637e-06
1.8165e-06
1.81669e-06
1.81693e-06
1.81719e-06
1.81746e-06
1.81783e-06
1.81837e-06
1.81909e-06
1.82034e-06
1.82457e-06
1.83021e-06
1.83505e-06
1.84078e-06
1.84755e-06
1.85509e-06
1.8627e-06
1.86838e-06
1.86893e-06
1.86151e-06
1.84714e-06
1.83637e-06
1.85268e-06
1.81601e-06
1.81601e-06
1.816e-06
1.816e-06
1.816e-06
1.816e-06
1.81601e-06
1.81601e-06
1.81601e-06
1.81601e-06
1.81602e-06
1.81602e-06
1.81602e-06
1.81602e-06
1.81602e-06
1.81602e-06
1.81601e-06
1.81601e-06
1.81603e-06
1.81605e-06
1.81607e-06
1.8161e-06
1.81615e-06
1.81622e-06
1.81633e-06
1.81642e-06
1.81654e-06
1.81672e-06
1.81696e-06
1.81725e-06
1.81757e-06
1.81798e-06
1.81858e-06
1.81937e-06
1.8204e-06
1.82408e-06
1.82945e-06
1.83419e-06
1.83974e-06
1.84625e-06
1.85341e-06
1.86057e-06
1.86581e-06
1.86599e-06
1.85852e-06
1.84477e-06
1.83571e-06
1.85415e-06
1.81601e-06
1.81601e-06
1.816e-06
1.816e-06
1.816e-06
1.81601e-06
1.81601e-06
1.81601e-06
1.81601e-06
1.81601e-06
1.81602e-06
1.81602e-06
1.81602e-06
1.81602e-06
1.81602e-06
1.81602e-06
1.81602e-06
1.81602e-06
1.81603e-06
1.81604e-06
1.81607e-06
1.8161e-06
1.81617e-06
1.81627e-06
1.81639e-06
1.81647e-06
1.81656e-06
1.81672e-06
1.81697e-06
1.81731e-06
1.81773e-06
1.81822e-06
1.8189e-06
1.81979e-06
1.82064e-06
1.82354e-06
1.82849e-06
1.83306e-06
1.8384e-06
1.84465e-06
1.85141e-06
1.85813e-06
1.86293e-06
1.86279e-06
1.85534e-06
1.84232e-06
1.83502e-06
1.85531e-06
1.81601e-06
1.81601e-06
1.81601e-06
1.816e-06
1.816e-06
1.81601e-06
1.81601e-06
1.81601e-06
1.81601e-06
1.81601e-06
1.81602e-06
1.81602e-06
1.81602e-06
1.81602e-06
1.81602e-06
1.81602e-06
1.81602e-06
1.81602e-06
1.81603e-06
1.81604e-06
1.81607e-06
1.81612e-06
1.81621e-06
1.81633e-06
1.81644e-06
1.81649e-06
1.81654e-06
1.81669e-06
1.81699e-06
1.81743e-06
1.81797e-06
1.8186e-06
1.81942e-06
1.82045e-06
1.82111e-06
1.82306e-06
1.82738e-06
1.8317e-06
1.83681e-06
1.84278e-06
1.84916e-06
1.85544e-06
1.85985e-06
1.85945e-06
1.85211e-06
1.8399e-06
1.83432e-06
1.85604e-06
1.81601e-06
1.81601e-06
1.81601e-06
1.81601e-06
1.81601e-06
1.81601e-06
1.81601e-06
1.81601e-06
1.81601e-06
1.81602e-06
1.81602e-06
1.81602e-06
1.81602e-06
1.81602e-06
1.81603e-06
1.81603e-06
1.81602e-06
1.81603e-06
1.81603e-06
1.81605e-06
1.81609e-06
1.81616e-06
1.81626e-06
1.81638e-06
1.81648e-06
1.81649e-06
1.81651e-06
1.81667e-06
1.81705e-06
1.81762e-06
1.81834e-06
1.81918e-06
1.82017e-06
1.82132e-06
1.82192e-06
1.82279e-06
1.82624e-06
1.8302e-06
1.83503e-06
1.84072e-06
1.84674e-06
1.85264e-06
1.85671e-06
1.85612e-06
1.84898e-06
1.83764e-06
1.83361e-06
1.85594e-06
1.81601e-06
1.81601e-06
1.81601e-06
1.81601e-06
1.81601e-06
1.81601e-06
1.81601e-06
1.81601e-06
1.81601e-06
1.81602e-06
1.81602e-06
1.81602e-06
1.81602e-06
1.81603e-06
1.81603e-06
1.81603e-06
1.81603e-06
1.81603e-06
1.81605e-06
1.81607e-06
1.81611e-06
1.81619e-06
1.8163e-06
1.81643e-06
1.8165e-06
1.81647e-06
1.81647e-06
1.81667e-06
1.81718e-06
1.81793e-06
1.81888e-06
1.81993e-06
1.82109e-06
1.82238e-06
1.8231e-06
1.82292e-06
1.82518e-06
1.82863e-06
1.83312e-06
1.83855e-06
1.84426e-06
1.84983e-06
1.85366e-06
1.85298e-06
1.84611e-06
1.83568e-06
1.83293e-06
1.8547e-06
1.81601e-06
1.81601e-06
1.81601e-06
1.81601e-06
1.81601e-06
1.81601e-06
1.81601e-06
1.81601e-06
1.81601e-06
1.81602e-06
1.81602e-06
1.81602e-06
1.81602e-06
1.81603e-06
1.81603e-06
1.81603e-06
1.81603e-06
1.81604e-06
1.81606e-06
1.81609e-06
1.81614e-06
1.81622e-06
1.81634e-06
1.81646e-06
1.8165e-06
1.81643e-06
1.81643e-06
1.81673e-06
1.8174e-06
1.81839e-06
1.81955e-06
1.82081e-06
1.82217e-06
1.82362e-06
1.82451e-06
1.82362e-06
1.8244e-06
1.82712e-06
1.83119e-06
1.83636e-06
1.84182e-06
1.84717e-06
1.85086e-06
1.8502e-06
1.84366e-06
1.83412e-06
1.83235e-06
1.85241e-06
1.81601e-06
1.81601e-06
1.81601e-06
1.81601e-06
1.81601e-06
1.81601e-06
1.81601e-06