/*--------------------------------*- C++ -*----------------------------------*\
  =========                 |
  \\      /  F ield         | OpenFOAM: The Open Source CFD Toolbox
   \\    /   O peration     | Website:  https://openfoam.org
    \\  /    A nd           | Version:  10
     \\/     M anipulation  |
\*---------------------------------------------------------------------------*/
FoamFile
{
    format      ascii;
    class       volScalarField;
    location    "5";
    object      nuTilda;
}
// * * * * * * * * * * * * * * * * * * * * * * * * * * * * * * * * * * * * * //

dimensions      [0 2 -1 0 0 0 0];

internalField   nonuniform List<scalar> 
38016
(
2.6e-05
2.6e-05
2.6e-05
2.6e-05
2.6e-05
2.6e-05
2.6e-05
2.6e-05
2.6e-05
2.6e-05
2.6e-05
2.6e-05
2.6e-05
2.6e-05
2.6e-05
2.6e-05
2.6e-05
2.60001e-05
2.60002e-05
2.60003e-05
2.60005e-05
2.60009e-05
2.60016e-05
2.60028e-05
2.60053e-05
2.60096e-05
2.60158e-05
2.6024e-05
2.6034e-05
2.60456e-05
2.60585e-05
2.60727e-05
2.60878e-05
2.61035e-05
2.61197e-05
2.6136e-05
2.61519e-05
2.61672e-05
2.61816e-05
2.61949e-05
2.6207e-05
2.62179e-05
2.62276e-05
2.62361e-05
2.62436e-05
2.62493e-05
2.62513e-05
2.62572e-05
2.6e-05
2.6e-05
2.6e-05
2.6e-05
2.6e-05
2.6e-05
2.6e-05
2.6e-05
2.6e-05
2.6e-05
2.6e-05
2.6e-05
2.6e-05
2.6e-05
2.6e-05
2.6e-05
2.6e-05
2.60001e-05
2.60002e-05
2.60004e-05
2.60006e-05
2.60011e-05
2.60019e-05
2.60034e-05
2.60061e-05
2.60108e-05
2.60174e-05
2.6026e-05
2.60365e-05
2.60487e-05
2.60622e-05
2.60769e-05
2.60925e-05
2.61087e-05
2.61252e-05
2.61416e-05
2.61575e-05
2.61726e-05
2.61866e-05
2.61993e-05
2.62106e-05
2.62206e-05
2.62293e-05
2.6237e-05
2.62436e-05
2.62488e-05
2.62502e-05
2.62537e-05
2.6e-05
2.6e-05
2.6e-05
2.6e-05
2.6e-05
2.6e-05
2.6e-05
2.6e-05
2.6e-05
2.6e-05
2.6e-05
2.6e-05
2.6e-05
2.6e-05
2.6e-05
2.6e-05
2.6e-05
2.60001e-05
2.60002e-05
2.60004e-05
2.60007e-05
2.60012e-05
2.6002e-05
2.60035e-05
2.60064e-05
2.60113e-05
2.60183e-05
2.60273e-05
2.60382e-05
2.60508e-05
2.60647e-05
2.60798e-05
2.60956e-05
2.61119e-05
2.61283e-05
2.61445e-05
2.616e-05
2.61745e-05
2.61877e-05
2.61994e-05
2.62097e-05
2.62186e-05
2.62263e-05
2.62329e-05
2.62389e-05
2.62439e-05
2.62456e-05
2.62471e-05
2.6e-05
2.6e-05
2.6e-05
2.6e-05
2.6e-05
2.6e-05
2.6e-05
2.6e-05
2.6e-05
2.6e-05
2.6e-05
2.6e-05
2.6e-05
2.6e-05
2.6e-05
2.6e-05
2.6e-05
2.60001e-05
2.60002e-05
2.60004e-05
2.60007e-05
2.60012e-05
2.60021e-05
2.60037e-05
2.60068e-05
2.60119e-05
2.60192e-05
2.60286e-05
2.604e-05
2.60531e-05
2.60676e-05
2.60832e-05
2.60994e-05
2.61161e-05
2.61327e-05
2.6149e-05
2.61643e-05
2.61785e-05
2.61913e-05
2.62025e-05
2.62121e-05
2.62203e-05
2.62272e-05
2.62333e-05
2.62389e-05
2.62442e-05
2.62469e-05
2.62478e-05
2.6e-05
2.6e-05
2.6e-05
2.6e-05
2.6e-05
2.6e-05
2.6e-05
2.6e-05
2.6e-05
2.6e-05
2.6e-05
2.6e-05
2.6e-05
2.6e-05
2.6e-05
2.6e-05
2.60001e-05
2.60001e-05
2.60002e-05
2.60005e-05
2.60008e-05
2.60013e-05
2.60023e-05
2.6004e-05
2.60072e-05
2.60126e-05
2.60202e-05
2.60301e-05
2.6042e-05
2.60556e-05
2.60706e-05
2.60866e-05
2.61032e-05
2.61201e-05
2.61367e-05
2.61528e-05
2.61678e-05
2.61815e-05
2.61935e-05
2.62039e-05
2.62125e-05
2.62196e-05
2.62256e-05
2.62307e-05
2.62357e-05
2.62411e-05
2.6245e-05
2.62452e-05
2.6e-05
2.6e-05
2.6e-05
2.6e-05
2.6e-05
2.6e-05
2.6e-05
2.6e-05
2.6e-05
2.6e-05
2.6e-05
2.6e-05
2.6e-05
2.6e-05
2.6e-05
2.6e-05
2.60001e-05
2.60001e-05
2.60003e-05
2.60005e-05
2.60008e-05
2.60014e-05
2.60024e-05
2.60042e-05
2.60076e-05
2.60132e-05
2.60212e-05
2.60315e-05
2.60439e-05
2.6058e-05
2.60734e-05
2.60897e-05
2.61065e-05
2.61234e-05
2.61399e-05
2.61556e-05
2.617e-05
2.61829e-05
2.6194e-05
2.62032e-05
2.62107e-05
2.62165e-05
2.62213e-05
2.62254e-05
2.62296e-05
2.6235e-05
2.62402e-05
2.62401e-05
2.6e-05
2.6e-05
2.6e-05
2.6e-05
2.6e-05
2.6e-05
2.6e-05
2.6e-05
2.6e-05
2.6e-05
2.6e-05
2.6e-05
2.6e-05
2.6e-05
2.6e-05
2.6e-05
2.60001e-05
2.60002e-05
2.60003e-05
2.60005e-05
2.60009e-05
2.60015e-05
2.60026e-05
2.60045e-05
2.6008e-05
2.60139e-05
2.60222e-05
2.60329e-05
2.60457e-05
2.60602e-05
2.6076e-05
2.60925e-05
2.61094e-05
2.61262e-05
2.61424e-05
2.61576e-05
2.61713e-05
2.61833e-05
2.61933e-05
2.62014e-05
2.62075e-05
2.6212e-05
2.62154e-05
2.62184e-05
2.62219e-05
2.62273e-05
2.62342e-05
2.62345e-05
2.6e-05
2.6e-05
2.6e-05
2.6e-05
2.6e-05
2.6e-05
2.6e-05
2.6e-05
2.6e-05
2.6e-05
2.6e-05
2.6e-05
2.6e-05
2.6e-05
2.6e-05
2.6e-05
2.60001e-05
2.60002e-05
2.60003e-05
2.60006e-05
2.6001e-05
2.60016e-05
2.60027e-05
2.60047e-05
2.60084e-05
2.60146e-05
2.60232e-05
2.60343e-05
2.60475e-05
2.60624e-05
2.60784e-05
2.60952e-05
2.61121e-05
2.61287e-05
2.61445e-05
2.61591e-05
2.6172e-05
2.61829e-05
2.61918e-05
2.61986e-05
2.62033e-05
2.62065e-05
2.62087e-05
2.62106e-05
2.62134e-05
2.62188e-05
2.62275e-05
2.62291e-05
2.6e-05
2.6e-05
2.6e-05
2.6e-05
2.6e-05
2.6e-05
2.6e-05
2.6e-05
2.6e-05
2.6e-05
2.6e-05
2.6e-05
2.6e-05
2.6e-05
2.6e-05
2.6e-05
2.60001e-05
2.60002e-05
2.60003e-05
2.60006e-05
2.6001e-05
2.60017e-05
2.60029e-05
2.6005e-05
2.60088e-05
2.60152e-05
2.60242e-05
2.60356e-05
2.60492e-05
2.60645e-05
2.60808e-05
2.60976e-05
2.61144e-05
2.61308e-05
2.61461e-05
2.61599e-05
2.61719e-05
2.61818e-05
2.61895e-05
2.61949e-05
2.61983e-05
2.62001e-05
2.62011e-05
2.6202e-05
2.62041e-05
2.62096e-05
2.62202e-05
2.62238e-05
2.6e-05
2.6e-05
2.6e-05
2.6e-05
2.6e-05
2.6e-05
2.6e-05
2.6e-05
2.6e-05
2.6e-05
2.6e-05
2.6e-05
2.6e-05
2.6e-05
2.6e-05
2.6e-05
2.60001e-05
2.60002e-05
2.60004e-05
2.60006e-05
2.60011e-05
2.60018e-05
2.60031e-05
2.60052e-05
2.60093e-05
2.60159e-05
2.60252e-05
2.6037e-05
2.60509e-05
2.60664e-05
2.60829e-05
2.60997e-05
2.61164e-05
2.61323e-05
2.6147e-05
2.616e-05
2.61711e-05
2.61798e-05
2.61862e-05
2.61903e-05
2.61924e-05
2.6193e-05
2.61928e-05
2.61928e-05
2.61943e-05
2.61997e-05
2.62123e-05
2.62187e-05
2.6e-05
2.6e-05
2.6e-05
2.6e-05
2.6e-05
2.6e-05
2.6e-05
2.6e-05
2.6e-05
2.6e-05
2.6e-05
2.6e-05
2.6e-05
2.6e-05
2.6e-05
2.6e-05
2.60001e-05
2.60002e-05
2.60004e-05
2.60007e-05
2.60012e-05
2.60019e-05
2.60032e-05
2.60055e-05
2.60097e-05
2.60166e-05
2.60261e-05
2.60382e-05
2.60524e-05
2.60682e-05
2.60847e-05
2.61015e-05
2.61179e-05
2.61333e-05
2.61473e-05
2.61595e-05
2.61695e-05
2.61771e-05
2.61822e-05
2.6185e-05
2.61858e-05
2.61851e-05
2.61838e-05
2.6183e-05
2.61839e-05
2.61893e-05
2.62038e-05
2.62136e-05
2.6e-05
2.6e-05
2.6e-05
2.6e-05
2.6e-05
2.6e-05
2.6e-05
2.6e-05
2.6e-05
2.6e-05
2.6e-05
2.6e-05
2.6e-05
2.6e-05
2.6e-05
2.6e-05
2.60001e-05
2.60002e-05
2.60004e-05
2.60007e-05
2.60012e-05
2.6002e-05
2.60034e-05
2.60058e-05
2.60101e-05
2.60172e-05
2.6027e-05
2.60394e-05
2.60538e-05
2.60697e-05
2.60863e-05
2.61029e-05
2.61189e-05
2.61338e-05
2.6147e-05
2.61582e-05
2.61671e-05
2.61735e-05
2.61774e-05
2.61789e-05
2.61784e-05
2.61766e-05
2.61744e-05
2.61728e-05
2.61733e-05
2.61785e-05
2.61948e-05
2.62086e-05
2.6e-05
2.6e-05
2.6e-05
2.6e-05
2.6e-05
2.6e-05
2.6e-05
2.6e-05
2.6e-05
2.6e-05
2.6e-05
2.6e-05
2.6e-05
2.6e-05
2.6e-05
2.6e-05
2.60001e-05
2.60002e-05
2.60004e-05
2.60008e-05
2.60013e-05
2.60022e-05
2.60036e-05
2.6006e-05
2.60105e-05
2.60178e-05
2.60278e-05
2.60404e-05
2.60551e-05
2.6071e-05
2.60876e-05
2.61039e-05
2.61195e-05
2.61337e-05
2.61461e-05
2.61562e-05
2.6164e-05
2.61692e-05
2.61719e-05
2.61722e-05
2.61705e-05
2.61676e-05
2.61645e-05
2.61624e-05
2.61624e-05
2.61675e-05
2.61853e-05
2.62035e-05
2.6e-05
2.6e-05
2.6e-05
2.6e-05
2.6e-05
2.6e-05
2.6e-05
2.6e-05
2.6e-05
2.6e-05
2.6e-05
2.6e-05
2.6e-05
2.6e-05
2.6e-05
2.6e-05
2.60001e-05
2.60003e-05
2.60005e-05
2.60008e-05
2.60014e-05
2.60023e-05
2.60037e-05
2.60063e-05
2.60109e-05
2.60183e-05
2.60286e-05
2.60414e-05
2.60561e-05
2.60721e-05
2.60885e-05
2.61045e-05
2.61195e-05
2.61329e-05
2.61444e-05
2.61535e-05
2.61602e-05
2.61642e-05
2.61657e-05
2.61648e-05
2.6162e-05
2.61582e-05
2.61545e-05
2.61519e-05
2.61516e-05
2.61564e-05
2.61755e-05
2.61984e-05
2.6e-05
2.6e-05
2.6e-05
2.6e-05
2.6e-05
2.6e-05
2.6e-05
2.6e-05
2.6e-05
2.6e-05
2.6e-05
2.6e-05
2.6e-05
2.6e-05
2.6e-05
2.6e-05
2.60001e-05
2.60003e-05
2.60005e-05
2.60009e-05
2.60014e-05
2.60024e-05
2.60039e-05
2.60065e-05
2.60112e-05
2.60188e-05
2.60293e-05
2.60422e-05
2.6057e-05
2.60729e-05
2.6089e-05
2.61045e-05
2.61189e-05
2.61316e-05
2.61421e-05
2.61502e-05
2.61557e-05
2.61586e-05
2.61589e-05
2.61569e-05
2.61531e-05
2.61486e-05
2.61444e-05
2.61414e-05
2.61408e-05
2.61453e-05
2.61653e-05
2.61931e-05
2.6e-05
2.6e-05
2.6e-05
2.6e-05
2.6e-05
2.6e-05
2.6e-05
2.6e-05
2.6e-05
2.6e-05
2.6e-05
2.6e-05
2.6e-05
2.6e-05
2.6e-05
2.6e-05
2.60001e-05
2.60003e-05
2.60005e-05
2.60009e-05
2.60015e-05
2.60025e-05
2.60041e-05
2.60067e-05
2.60115e-05
2.60193e-05
2.60298e-05
2.60428e-05
2.60576e-05
2.60733e-05
2.6089e-05
2.61041e-05
2.61177e-05
2.61295e-05
2.61391e-05
2.61461e-05
2.61505e-05
2.61523e-05
2.61516e-05
2.61485e-05
2.61439e-05
2.61388e-05
2.61343e-05
2.61312e-05
2.61304e-05
2.61344e-05
2.6155e-05
2.61878e-05
2.6e-05
2.6e-05
2.6e-05
2.6e-05
2.6e-05
2.6e-05
2.6e-05
2.6e-05
2.6e-05
2.6e-05
2.6e-05
2.6e-05
2.6e-05
2.6e-05
2.6e-05
2.6e-05
2.60001e-05
2.60003e-05
2.60006e-05
2.6001e-05
2.60016e-05
2.60026e-05
2.60042e-05
2.60069e-05
2.60118e-05
2.60196e-05
2.60302e-05
2.60432e-05
2.60579e-05
2.60733e-05
2.60887e-05
2.61031e-05
2.6116e-05
2.61269e-05
2.61354e-05
2.61414e-05
2.61448e-05
2.61455e-05
2.61437e-05
2.61398e-05
2.61345e-05
2.61291e-05
2.61245e-05
2.61215e-05
2.61205e-05
2.61239e-05
2.61446e-05
2.61822e-05
2.6e-05
2.6e-05
2.6e-05
2.6e-05
2.6e-05
2.6e-05
2.6e-05
2.6e-05
2.6e-05
2.6e-05
2.6e-05
2.6e-05
2.6e-05
2.6e-05
2.6e-05
2.6e-05
2.60001e-05
2.60003e-05
2.60006e-05
2.6001e-05
2.60017e-05
2.60027e-05
2.60044e-05
2.60071e-05
2.6012e-05
2.60199e-05
2.60305e-05
2.60435e-05
2.60579e-05
2.6073e-05
2.60878e-05
2.61015e-05
2.61136e-05
2.61236e-05
2.61311e-05
2.61361e-05
2.61384e-05
2.61381e-05
2.61354e-05
2.61307e-05
2.6125e-05
2.61194e-05
2.6115e-05
2.61123e-05
2.61111e-05
2.61138e-05
2.61342e-05
2.61764e-05
2.6e-05
2.6e-05
2.6e-05
2.6e-05
2.6e-05
2.6e-05
2.6e-05
2.6e-05
2.6e-05
2.6e-05
2.6e-05
2.6e-05
2.6e-05
2.6e-05
2.6e-05
2.6e-05
2.60002e-05
2.60003e-05
2.60006e-05
2.6001e-05
2.60017e-05
2.60028e-05
2.60045e-05
2.60073e-05
2.60122e-05
2.60201e-05
2.60307e-05
2.60434e-05
2.60576e-05
2.60723e-05
2.60864e-05
2.60994e-05
2.61106e-05
2.61196e-05
2.61262e-05
2.61302e-05
2.61315e-05
2.61303e-05
2.61268e-05
2.61215e-05
2.61155e-05
2.61101e-05
2.61062e-05
2.6104e-05
2.61026e-05
2.61043e-05
2.61239e-05
2.61704e-05
2.6e-05
2.6e-05
2.6e-05
2.6e-05
2.6e-05
2.6e-05
2.6e-05
2.6e-05
2.6e-05
2.6e-05
2.6e-05
2.60001e-05
2.6e-05
2.6e-05
2.6e-05
2.60001e-05
2.60002e-05
2.60003e-05
2.60006e-05
2.60011e-05
2.60018e-05
2.60029e-05
2.60046e-05
2.60074e-05
2.60123e-05
2.60202e-05
2.60306e-05
2.60432e-05
2.6057e-05
2.60711e-05
2.60846e-05
2.60967e-05
2.6107e-05
2.61151e-05
2.61207e-05
2.61237e-05
2.61242e-05
2.61221e-05
2.61179e-05
2.61122e-05
2.61063e-05
2.61013e-05
2.60982e-05
2.60967e-05
2.60952e-05
2.60955e-05
2.61139e-05
2.61642e-05
2.6e-05
2.6e-05
2.6e-05
2.6e-05
2.6e-05
2.6e-05
2.6e-05
2.6e-05
2.6e-05
2.6e-05
2.6e-05
2.60001e-05
2.60001e-05
2.6e-05
2.6e-05
2.60001e-05
2.60002e-05
2.60004e-05
2.60007e-05
2.60011e-05
2.60018e-05
2.60029e-05
2.60047e-05
2.60075e-05
2.60124e-05
2.60201e-05
2.60304e-05
2.60426e-05
2.6056e-05
2.60695e-05
2.60822e-05
2.60935e-05
2.61029e-05
2.61101e-05
2.61147e-05
2.61168e-05
2.61164e-05
2.61136e-05
2.61089e-05
2.61029e-05
2.60973e-05
2.60932e-05
2.60912e-05
2.60906e-05
2.60888e-05
2.60876e-05
2.61041e-05
2.61576e-05
2.6e-05
2.6e-05
2.6e-05
2.6e-05
2.6e-05
2.6e-05
2.6e-05
2.6e-05
2.6e-05
2.6e-05
2.60001e-05
2.60001e-05
2.60001e-05
2.6e-05
2.6e-05
2.60001e-05
2.60002e-05
2.60004e-05
2.60007e-05
2.60012e-05
2.60019e-05
2.6003e-05
2.60048e-05
2.60075e-05
2.60124e-05
2.60199e-05
2.60299e-05
2.60418e-05
2.60546e-05
2.60674e-05
2.60794e-05
2.60898e-05
2.60982e-05
2.61045e-05
2.61082e-05
2.61094e-05
2.61082e-05
2.61048e-05
2.60997e-05
2.60939e-05
2.60889e-05
2.6086e-05
2.60854e-05
2.6086e-05
2.60839e-05
2.60805e-05
2.60948e-05
2.61508e-05
2.6e-05
2.6e-05
2.6e-05
2.6e-05
2.6e-05
2.6e-05
2.6e-05
2.6e-05
2.6e-05
2.6e-05
2.60001e-05
2.60001e-05
2.60001e-05
2.6e-05
2.6e-05
2.60001e-05
2.60002e-05
2.60004e-05
2.60007e-05
2.60012e-05
2.60019e-05
2.60031e-05
2.60048e-05
2.60076e-05
2.60123e-05
2.60196e-05
2.60293e-05
2.60407e-05
2.60529e-05
2.60649e-05
2.6076e-05
2.60855e-05
2.60931e-05
2.60984e-05
2.61013e-05
2.61017e-05
2.60998e-05
2.60959e-05
2.60907e-05
2.60852e-05
2.60813e-05
2.608e-05
2.60812e-05
2.60831e-05
2.60804e-05
2.60744e-05
2.60859e-05
2.61436e-05
2.6e-05
2.6e-05
2.6e-05
2.6e-05
2.6e-05
2.6e-05
2.6e-05
2.6e-05
2.6e-05
2.60001e-05
2.60001e-05
2.60001e-05
2.60001e-05
2.6e-05
2.6e-05
2.60001e-05
2.60002e-05
2.60004e-05
2.60007e-05
2.60012e-05
2.6002e-05
2.60031e-05
2.60048e-05
2.60075e-05
2.60121e-05
2.60192e-05
2.60284e-05
2.60393e-05
2.60508e-05
2.6062e-05
2.60722e-05
2.60808e-05
2.60874e-05
2.6092e-05
2.60941e-05
2.60937e-05
2.60913e-05
2.6087e-05
2.60819e-05
2.6077e-05
2.60746e-05
2.60754e-05
2.60788e-05
2.60823e-05
2.60788e-05
2.60694e-05
2.60774e-05
2.61362e-05
2.6e-05
2.6e-05
2.6e-05
2.6e-05
2.6e-05
2.6e-05
2.6e-05
2.6e-05
2.6e-05
2.60001e-05
2.60001e-05
2.60001e-05
2.60001e-05
2.60001e-05
2.6e-05
2.60001e-05
2.60002e-05
2.60004e-05
2.60007e-05
2.60012e-05
2.6002e-05
2.60031e-05
2.60049e-05
2.60075e-05
2.60119e-05
2.60186e-05
2.60274e-05
2.60376e-05
2.60483e-05
2.60587e-05
2.60679e-05
2.60756e-05
2.60814e-05
2.60852e-05
2.60865e-05
2.60855e-05
2.60826e-05
2.60782e-05
2.60734e-05
2.60696e-05
2.60691e-05
2.60726e-05
2.60785e-05
2.60841e-05
2.60799e-05
2.60661e-05
2.6069e-05
2.61285e-05
2.6e-05
2.6e-05
2.6e-05
2.6e-05
2.6e-05
2.6e-05
2.6e-05
2.6e-05
2.6e-05
2.60001e-05
2.60001e-05
2.60001e-05
2.60001e-05
2.60001e-05
2.6e-05
2.60001e-05
2.60002e-05
2.60004e-05
2.60007e-05
2.60013e-05
2.6002e-05
2.60031e-05
2.60048e-05
2.60074e-05
2.60116e-05
2.60179e-05
2.60261e-05
2.60356e-05
2.60456e-05
2.6055e-05
2.60633e-05
2.60701e-05
2.60751e-05
2.60781e-05
2.60788e-05
2.60772e-05
2.6074e-05
2.60697e-05
2.60655e-05
2.60632e-05
2.60652e-05
2.60717e-05
2.6081e-05
2.60893e-05
2.60843e-05
2.60651e-05
2.60612e-05
2.61205e-05
2.6e-05
2.6e-05
2.6e-05
2.6e-05
2.6e-05
2.6e-05
2.6e-05
2.6e-05
2.6e-05
2.60001e-05
2.60001e-05
2.60001e-05
2.60001e-05
2.60001e-05
2.6e-05
2.60001e-05
2.60002e-05
2.60004e-05
2.60007e-05
2.60013e-05
2.6002e-05
2.60031e-05
2.60048e-05
2.60072e-05
2.60112e-05
2.60171e-05
2.60247e-05
2.60334e-05
2.60425e-05
2.6051e-05
2.60583e-05
2.60642e-05
2.60685e-05
2.60708e-05
2.60709e-05
2.60689e-05
2.60656e-05
2.60616e-05
2.60585e-05
2.6058e-05
2.60631e-05
2.60733e-05
2.60871e-05
2.60988e-05
2.60928e-05
2.60667e-05
2.60544e-05
2.61125e-05
2.6e-05
2.6e-05
2.6e-05
2.6e-05
2.6e-05
2.6e-05
2.6e-05
2.6e-05
2.60001e-05
2.60001e-05
2.60001e-05
2.60001e-05
2.60001e-05
2.60001e-05
2.6e-05
2.60001e-05
2.60002e-05
2.60004e-05
2.60008e-05
2.60013e-05
2.6002e-05
2.60031e-05
2.60047e-05
2.6007e-05
2.60108e-05
2.60162e-05
2.60231e-05
2.60309e-05
2.60391e-05
2.60467e-05
2.60531e-05
2.60582e-05
2.60617e-05
2.60635e-05
2.6063e-05
2.60607e-05
2.60575e-05
2.60542e-05
2.60525e-05
2.60545e-05
2.60633e-05
2.60782e-05
2.60976e-05
2.61147e-05
2.61079e-05
2.60716e-05
2.60491e-05
2.61044e-05
2.6e-05
2.6e-05
2.6e-05
2.6e-05
2.6e-05
2.6e-05
2.6e-05
2.6e-05
2.60001e-05
2.60001e-05
2.60001e-05
2.60001e-05
2.60001e-05
2.60001e-05
2.6e-05
2.6e-05
2.60002e-05
2.60004e-05
2.60007e-05
2.60013e-05
2.6002e-05
2.60031e-05
2.60046e-05
2.60068e-05
2.60103e-05
2.60152e-05
2.60213e-05
2.60283e-05
2.60356e-05
2.60422e-05
2.60477e-05
2.6052e-05
2.60549e-05
2.60561e-05
2.60552e-05
2.60527e-05
2.605e-05
2.60476e-05
2.60478e-05
2.60529e-05
2.60661e-05
2.60871e-05
2.61141e-05
2.61323e-05
2.61245e-05
2.60828e-05
2.60453e-05
2.60963e-05
2.6e-05
2.6e-05
2.6e-05
2.6e-05
2.6e-05
2.6e-05
2.6e-05
2.6e-05
2.60001e-05
2.60001e-05
2.60001e-05
2.60001e-05
2.60001e-05
2.60001e-05
2.6e-05
2.6e-05
2.60002e-05
2.60004e-05
2.60007e-05
2.60013e-05
2.6002e-05
2.6003e-05
2.60045e-05
2.60065e-05
2.60097e-05
2.60142e-05
2.60195e-05
2.60256e-05
2.60319e-05
2.60376e-05
2.60422e-05
2.60458e-05
2.60481e-05
2.60489e-05
2.60477e-05
2.60453e-05
2.60432e-05
2.60422e-05
2.60448e-05
2.60536e-05
2.60723e-05
2.61015e-05
2.61323e-05
2.61511e-05
2.61422e-05
2.60957e-05
2.60433e-05
2.60883e-05
2.6e-05
2.6e-05
2.6e-05
2.6e-05
2.6e-05
2.6e-05
2.6e-05
2.6e-05
2.60001e-05
2.60001e-05
2.60001e-05
2.60001e-05
2.60001e-05
2.60001e-05
2.6e-05
2.6e-05
2.60002e-05
2.60004e-05
2.60007e-05
2.60012e-05
2.60019e-05
2.60029e-05
2.60043e-05
2.60062e-05
2.60091e-05
2.6013e-05
2.60177e-05
2.60228e-05
2.60281e-05
2.60329e-05
2.60367e-05
2.60396e-05
2.60414e-05
2.60419e-05
2.60405e-05
2.60384e-05
2.60374e-05
2.60383e-05
2.60438e-05
2.60572e-05
2.6083e-05
2.61177e-05
2.61512e-05
2.61691e-05
2.61588e-05
2.61099e-05
2.60437e-05
2.60807e-05
2.6e-05
2.6e-05
2.6e-05
2.6e-05
2.6e-05
2.6e-05
2.6e-05
2.6e-05
2.60001e-05
2.60001e-05
2.60001e-05
2.60001e-05
2.60001e-05
2.60001e-05
2.6e-05
2.6e-05
2.60002e-05
2.60004e-05
2.60007e-05
2.60012e-05
2.60019e-05
2.60028e-05
2.60041e-05
2.60058e-05
2.60084e-05
2.60119e-05
2.60158e-05
2.602e-05
2.60244e-05
2.60283e-05
2.60314e-05
2.60336e-05
2.6035e-05
2.60352e-05
2.60337e-05
2.60323e-05
2.60329e-05
2.60362e-05
2.60453e-05
2.60643e-05
2.60965e-05
2.61346e-05
2.61682e-05
2.61856e-05
2.61735e-05
2.61234e-05
2.60495e-05
2.60739e-05
2.6e-05
2.6e-05
2.6e-05
2.6e-05
2.6e-05
2.6e-05
2.6e-05
2.60001e-05
2.60001e-05
2.60001e-05
2.60001e-05
2.60001e-05
2.60001e-05
2.60001e-05
2.60001e-05
2.6e-05
2.60002e-05
2.60004e-05
2.60007e-05
2.60012e-05
2.60018e-05
2.60027e-05
2.60039e-05
2.60054e-05
2.60076e-05
2.60106e-05
2.60139e-05
2.60173e-05
2.60208e-05
2.60238e-05
2.60262e-05
2.60279e-05
2.6029e-05
2.6029e-05
2.60277e-05
2.60273e-05
2.60301e-05
2.60363e-05
2.60498e-05
2.60752e-05
2.61113e-05
2.61503e-05
2.6184e-05
2.62011e-05
2.61871e-05
2.61338e-05
2.60583e-05
2.60681e-05
2.6e-05
2.6e-05
2.6e-05
2.6e-05
2.6e-05
2.6e-05
2.6e-05
2.60001e-05
2.60001e-05
2.60001e-05
2.60001e-05
2.60001e-05
2.60001e-05
2.60001e-05
2.60001e-05
2.6e-05
2.60001e-05
2.60004e-05
2.60007e-05
2.60011e-05
2.60017e-05
2.60026e-05
2.60036e-05
2.6005e-05
2.60069e-05
2.60094e-05
2.60121e-05
2.60148e-05
2.60174e-05
2.60197e-05
2.60214e-05
2.60226e-05
2.60234e-05
2.60234e-05
2.60224e-05
2.60236e-05
2.60292e-05
2.60391e-05
2.60583e-05
2.60879e-05
2.61256e-05
2.61648e-05
2.6199e-05
2.62153e-05
2.61993e-05
2.61432e-05
2.60674e-05
2.60644e-05
2.6e-05
2.6e-05
2.6e-05
2.6e-05
2.6e-05
2.6e-05
2.6e-05
2.60001e-05
2.60001e-05
2.60001e-05
2.60001e-05
2.60001e-05
2.60001e-05
2.60001e-05
2.60001e-05
2.6e-05
2.60001e-05
2.60003e-05
2.60006e-05
2.60011e-05
2.60017e-05
2.60024e-05
2.60034e-05
2.60045e-05
2.60061e-05
2.60082e-05
2.60103e-05
2.60123e-05
2.60142e-05
2.60159e-05
2.6017e-05
2.60179e-05
2.60185e-05
2.60185e-05
2.6018e-05
2.60215e-05
2.60308e-05
2.60451e-05
2.60683e-05
2.61008e-05
2.61383e-05
2.61783e-05
2.62126e-05
2.62282e-05
2.62099e-05
2.61512e-05
2.60769e-05
2.60686e-05
2.60001e-05
2.6e-05
2.6e-05
2.6e-05
2.6e-05
2.6e-05
2.6e-05
2.60001e-05
2.60001e-05
2.60001e-05
2.60001e-05
2.60001e-05
2.60001e-05
2.60001e-05
2.60001e-05
2.6e-05
2.60001e-05
2.60003e-05
2.60006e-05
2.6001e-05
2.60016e-05
2.60022e-05
2.60031e-05
2.60041e-05
2.60053e-05
2.6007e-05
2.60085e-05
2.601e-05
2.60114e-05
2.60125e-05
2.60132e-05
2.60138e-05
2.60143e-05
2.60145e-05
2.60148e-05
2.60212e-05
2.60353e-05
2.60531e-05
2.60791e-05
2.61119e-05
2.615e-05
2.61905e-05
2.62248e-05
2.62393e-05
2.62189e-05
2.61576e-05
2.60832e-05
2.60772e-05
2.60001e-05
2.6e-05
2.6e-05
2.6e-05
2.6e-05
2.6e-05
2.6e-05
2.60001e-05
2.60001e-05
2.60001e-05
2.60001e-05
2.60001e-05
2.60001e-05
2.60001e-05
2.60001e-05
2.6e-05
2.60001e-05
2.60003e-05
2.60006e-05
2.60009e-05
2.60014e-05
2.60021e-05
2.60028e-05
2.60036e-05
2.60046e-05
2.60058e-05
2.60069e-05
2.6008e-05
2.60089e-05
2.60097e-05
2.601e-05
2.60104e-05
2.60109e-05
2.60113e-05
2.60127e-05
2.60232e-05
2.60417e-05
2.60619e-05
2.60889e-05
2.61217e-05
2.61604e-05
2.62012e-05
2.62353e-05
2.62487e-05
2.62259e-05
2.61622e-05
2.60871e-05
2.60848e-05
2.60001e-05
2.6e-05
2.6e-05
2.6e-05
2.6e-05
2.6e-05
2.60001e-05
2.60001e-05
2.60001e-05
2.60001e-05
2.60001e-05
2.60001e-05
2.60001e-05
2.60001e-05
2.60001e-05
2.6e-05
2.60001e-05
2.60003e-05
2.60005e-05
2.60009e-05
2.60013e-05
2.60019e-05
2.60025e-05
2.60031e-05
2.60039e-05
2.60048e-05
2.60055e-05
2.60061e-05
2.60068e-05
2.60073e-05
2.60075e-05
2.60078e-05
2.60084e-05
2.60092e-05
2.6012e-05
2.60271e-05
2.60489e-05
2.60704e-05
2.60972e-05
2.61304e-05
2.61695e-05
2.62104e-05
2.6244e-05
2.6256e-05
2.62309e-05
2.61651e-05
2.60909e-05
2.60965e-05
2.60001e-05
2.6e-05
2.6e-05
2.6e-05
2.6e-05
2.6e-05
2.60001e-05
2.60001e-05
2.60001e-05
2.60001e-05
2.60001e-05
2.60001e-05
2.60001e-05
2.60001e-05
2.60001e-05
2.6e-05
2.60001e-05
2.60002e-05
2.60005e-05
2.60008e-05
2.60012e-05
2.60017e-05
2.60022e-05
2.60027e-05
2.60032e-05
2.60038e-05
2.60042e-05
2.60046e-05
2.60051e-05
2.60054e-05
2.60057e-05
2.60061e-05
2.60068e-05
2.6008e-05
2.60127e-05
2.60316e-05
2.60556e-05
2.60773e-05
2.61043e-05
2.61379e-05
2.6177e-05
2.62177e-05
2.62507e-05
2.62611e-05
2.62338e-05
2.61661e-05
2.60941e-05
2.61122e-05
2.60001e-05
2.60001e-05
2.6e-05
2.6e-05
2.6e-05
2.6e-05
2.60001e-05
2.60001e-05
2.60001e-05
2.60001e-05
2.60001e-05
2.60001e-05
2.60001e-05
2.60001e-05
2.60001e-05
2.6e-05
2.60001e-05
2.60002e-05
2.60004e-05
2.60007e-05
2.60011e-05
2.60015e-05
2.60019e-05
2.60023e-05
2.60026e-05
2.6003e-05
2.60032e-05
2.60035e-05
2.60038e-05
2.60042e-05
2.60045e-05
2.60051e-05
2.60061e-05
2.60078e-05
2.60144e-05
2.6036e-05
2.6061e-05
2.60828e-05
2.61101e-05
2.61438e-05
2.61828e-05
2.62231e-05
2.62551e-05
2.6264e-05
2.62344e-05
2.61654e-05
2.60964e-05
2.61272e-05
2.60001e-05
2.60001e-05
2.6e-05
2.6e-05
2.6e-05
2.60001e-05
2.60001e-05
2.60001e-05
2.60001e-05
2.60001e-05
2.60001e-05
2.60001e-05
2.60001e-05
2.60001e-05
2.60001e-05
2.60001e-05
2.60001e-05
2.60002e-05
2.60004e-05
2.60006e-05
2.60009e-05
2.60013e-05
2.60016e-05
2.60019e-05
2.60021e-05
2.60023e-05
2.60024e-05
2.60027e-05
2.60031e-05
2.60036e-05
2.60041e-05
2.6005e-05
2.60063e-05
2.60086e-05
2.60165e-05
2.60392e-05
2.60649e-05
2.60871e-05
2.61146e-05
2.61482e-05
2.61869e-05
2.62265e-05
2.62573e-05
2.62644e-05
2.62328e-05
2.61629e-05
2.6098e-05
2.61414e-05
2.60001e-05
2.60001e-05
2.6e-05
2.6e-05
2.6e-05
2.60001e-05
2.60001e-05
2.60001e-05
2.60001e-05
2.60001e-05
2.60001e-05
2.60001e-05
2.60001e-05
2.60001e-05
2.60001e-05
2.60001e-05
2.60001e-05
2.60002e-05
2.60003e-05
2.60006e-05
2.60008e-05
2.60011e-05
2.60013e-05
2.60015e-05
2.60016e-05
2.60018e-05
2.60019e-05
2.60023e-05
2.60029e-05
2.60037e-05
2.60045e-05
2.60056e-05
2.60073e-05
2.60099e-05
2.60182e-05
2.60412e-05
2.60675e-05
2.60901e-05
2.61176e-05
2.6151e-05
2.6189e-05
2.62277e-05
2.62572e-05
2.62624e-05
2.62289e-05
2.61587e-05
2.60991e-05
2.61574e-05
2.60001e-05
2.60001e-05
2.60001e-05
2.6e-05
2.6e-05
2.60001e-05
2.60001e-05
2.60001e-05
2.60001e-05
2.60001e-05
2.60001e-05
2.60001e-05
2.60001e-05
2.60001e-05
2.60001e-05
2.60001e-05
2.60001e-05
2.60001e-05
2.60003e-05
2.60005e-05
2.60007e-05
2.60009e-05
2.60011e-05
2.60012e-05
2.60013e-05
2.60015e-05
2.60017e-05
2.60024e-05
2.60032e-05
2.60042e-05
2.60052e-05
2.60065e-05
2.60085e-05
2.60114e-05
2.60193e-05
2.60421e-05
2.6069e-05
2.60917e-05
2.61191e-05
2.6152e-05
2.61892e-05
2.62267e-05
2.62547e-05
2.6258e-05
2.62228e-05
2.6153e-05
2.60995e-05
2.61741e-05
2.60001e-05
2.60001e-05
2.60001e-05
2.6e-05
2.60001e-05
2.60001e-05
2.60001e-05
2.60001e-05
2.60001e-05
2.60001e-05
2.60001e-05
2.60001e-05
2.60001e-05
2.60001e-05
2.60001e-05
2.60001e-05
2.60001e-05
2.60001e-05
2.60002e-05
2.60004e-05
2.60006e-05
2.60008e-05
2.60009e-05
2.6001e-05
2.60012e-05
2.60014e-05
2.60019e-05
2.60026e-05
2.60037e-05
2.60048e-05
2.60059e-05
2.60075e-05
2.60097e-05
2.60126e-05
2.60197e-05
2.6042e-05
2.60691e-05
2.60918e-05
2.6119e-05
2.61513e-05
2.61874e-05
2.62235e-05
2.62498e-05
2.62513e-05
2.62147e-05
2.61458e-05
2.60993e-05
2.61893e-05
2.60001e-05
2.60001e-05
2.60001e-05
2.60001e-05
2.60001e-05
2.60001e-05
2.60001e-05
2.60001e-05
2.60001e-05
2.60001e-05
2.60001e-05
2.60001e-05
2.60001e-05
2.60001e-05
2.60001e-05
2.60001e-05
2.60001e-05
2.60001e-05
2.60002e-05
2.60003e-05
2.60005e-05
2.60006e-05
2.60008e-05
2.60009e-05
2.60012e-05
2.60016e-05
2.60021e-05
2.6003e-05
2.60041e-05
2.60053e-05
2.60066e-05
2.60083e-05
2.60106e-05
2.60137e-05
2.602e-05
2.6041e-05
2.60678e-05
2.60905e-05
2.61173e-05
2.61488e-05
2.61837e-05
2.62183e-05
2.62428e-05
2.62424e-05
2.62048e-05
2.61375e-05
2.60984e-05
2.62011e-05
2.60001e-05
2.60001e-05
2.60001e-05
2.60001e-05
2.60001e-05
2.60001e-05
2.60001e-05
2.60001e-05
2.60001e-05
2.60001e-05
2.60001e-05
2.60001e-05
2.60001e-05
2.60001e-05
2.60001e-05
2.60001e-05
2.60001e-05
2.60001e-05
2.60002e-05
2.60003e-05
2.60004e-05
2.60005e-05
2.60007e-05
2.6001e-05
2.60014e-05
2.60018e-05
2.60024e-05
2.60033e-05
2.60044e-05
2.60057e-05
2.60072e-05
2.6009e-05
2.60116e-05
2.60151e-05
2.60203e-05
2.60393e-05
2.60654e-05
2.60879e-05
2.61141e-05
2.61447e-05
2.61782e-05
2.62111e-05
2.62337e-05
2.62317e-05
2.61934e-05
2.61282e-05
2.6097e-05
2.62107e-05
2.60001e-05
2.60001e-05
2.60001e-05
2.60001e-05
2.60001e-05
2.60001e-05
2.60001e-05
2.60001e-05
2.60001e-05
2.60001e-05
2.60001e-05
2.60001e-05
2.60001e-05
2.60001e-05
2.60001e-05
2.60001e-05
2.60001e-05
2.60001e-05
2.60002e-05
2.60003e-05
2.60004e-05
2.60005e-05
2.60007e-05
2.60011e-05
2.60017e-05
2.60021e-05
2.60026e-05
2.60034e-05
2.60045e-05
2.6006e-05
2.60078e-05
2.601e-05
2.60132e-05
2.60173e-05
2.60212e-05
2.60372e-05
2.60619e-05
2.60839e-05
2.61094e-05
2.61391e-05
2.61711e-05
2.62022e-05
2.6223e-05
2.62194e-05
2.61808e-05
2.61185e-05
2.60952e-05
2.62184e-05
2.60001e-05
2.60001e-05
2.60001e-05
2.60001e-05
2.60001e-05
2.60001e-05
2.60001e-05
2.60001e-05
2.60001e-05
2.60001e-05
2.60001e-05
2.60001e-05
2.60001e-05
2.60001e-05
2.60001e-05
2.60001e-05
2.60001e-05
2.60001e-05
2.60002e-05
2.60002e-05
2.60004e-05
2.60005e-05
2.60009e-05
2.60014e-05
2.6002e-05
2.60023e-05
2.60026e-05
2.60033e-05
2.60046e-05
2.60064e-05
2.60087e-05
2.60117e-05
2.60158e-05
2.60206e-05
2.60231e-05
2.6035e-05
2.60575e-05
2.60787e-05
2.61034e-05
2.6132e-05
2.61626e-05
2.61919e-05
2.62111e-05
2.62061e-05
2.61676e-05
2.61085e-05
2.60931e-05
2.62234e-05
2.60001e-05
2.60001e-05
2.60001e-05
2.60001e-05
2.60001e-05
2.60001e-05
2.60001e-05
2.60001e-05
2.60001e-05
2.60001e-05
2.60001e-05
2.60001e-05
2.60001e-05
2.60002e-05
2.60002e-05
2.60002e-05
2.60001e-05
2.60001e-05
2.60002e-05
2.60003e-05
2.60004e-05
2.60006e-05
2.60011e-05
2.60016e-05
2.60022e-05
2.60024e-05
2.60025e-05
2.60032e-05
2.60047e-05
2.60071e-05
2.60104e-05
2.60143e-05
2.60191e-05
2.60247e-05
2.6027e-05
2.60334e-05
2.60527e-05
2.60726e-05
2.60963e-05
2.61239e-05
2.61529e-05
2.61807e-05
2.61983e-05
2.61923e-05
2.61543e-05
2.60988e-05
2.60906e-05
2.62253e-05
2.60001e-05
2.60001e-05
2.60001e-05
2.60001e-05
2.60001e-05
2.60001e-05
2.60001e-05
2.60001e-05
2.60001e-05
2.60001e-05
2.60001e-05
2.60001e-05
2.60002e-05
2.60002e-05
2.60002e-05
2.60002e-05
2.60002e-05
2.60002e-05
2.60002e-05
2.60003e-05
2.60005e-05
2.60008e-05
2.60013e-05
2.60019e-05
2.60024e-05
2.60023e-05
2.60024e-05
2.60031e-05
2.60051e-05
2.60084e-05
2.60127e-05
2.60176e-05
2.60233e-05
2.60297e-05
2.60323e-05
2.60331e-05
2.60479e-05
2.6066e-05
2.60884e-05
2.61148e-05
2.61426e-05
2.61689e-05
2.61853e-05
2.61787e-05
2.61415e-05
2.60897e-05
2.60878e-05
2.62233e-05
2.60001e-05
2.60001e-05
2.60001e-05
2.60001e-05
2.60001e-05
2.60001e-05
2.60001e-05
2.60001e-05
2.60001e-05
2.60001e-05
2.60001e-05
2.60001e-05
2.60002e-05
2.60002e-05
2.60002e-05
2.60002e-05
2.60002e-05
2.60002e-05
2.60003e-05
2.60004e-05
2.60006e-05
2.6001e-05
2.60015e-05
2.60021e-05
2.60024e-05
2.60022e-05
2.60022e-05
2.60032e-05
2.6006e-05
2.60103e-05
2.60156e-05
2.60216e-05
2.60283e-05
2.60355e-05
2.60391e-05
2.6035e-05
2.60437e-05
2.60592e-05
2.60799e-05
2.61053e-05
2.61318e-05
2.6157e-05
2.61726e-05
2.61658e-05
2.61299e-05
2.60819e-05
2.60847e-05
2.62162e-05
2.60001e-05
2.60001e-05
2.60001e-05
2.60001e-05
2.60001e-05
2.60001e-05
2.60001e-05
2.60001e-05
2.60001e-05
2.60001e-05
2.60001e-05
2.60001e-05
2.60002e-05
2.60002e-05
2.60002e-05
2.60002e-05
2.60002e-05
2.60002e-05
2.60003e-05
2.60005e-05
2.60007e-05
2.60011e-05
2.60017e-05
2.60023e-05
2.60025e-05
2.60021e-05
2.6002e-05
2.60035e-05
2.60073e-05
2.60126e-05
2.60191e-05
2.60261e-05
2.60338e-05
2.6042e-05
2.6047e-05
2.60404e-05
2.60411e-05
2.60528e-05
2.60714e-05
2.60956e-05
2.61213e-05
2.61456e-05
2.61609e-05
2.61543e-05
2.612e-05
2.60756e-05
2.60815e-05
2.62044e-05
2.60001e-05
2.60001e-05
2.60001e-05
2.60001e-05
2.60001e-05
2.60001e-05
2.60001e-05
2.60001e-05
2.60001e-05
2.60001e-05
2.60001e-05
2.60002e-05
2.60002e-05
2.60002e-05
2.60002e-05
2.60002e-05
2.60002e-05
2.60003e-05
2.60004e-05
2.60005e-05
2.60008e-05
2.60013e-05
2.60018e-05
2.60024e-05
2.60025e-05
2.60019e-05
2.60019e-05
2.60042e-05
2.6009e-05
2.60154e-05
2.60229e-05
2.60311e-05
2.60397e-05
2.60489e-05
2.60555e-05
2.60491e-05
2.60411e-05
2.60476e-05
2.60634e-05
2.60863e-05
2.61112e-05
2.61352e-05
2.61506e-05
2.61448e-05
2.61123e-05
2.60713e-05
2.60786e-05
2.6189e-05
2.60001e-05
2.60001e-05
2.60001e-05
2.60001e-05
2.60001e-05
2.60001e-05
2.60001e-05
2.60001e-05
2.60001e-05
2.60001e-05
2.60001e-05
2.60002e-05
2.60002e-05
2.60002e-05
2.60002e-05
2.60002e-05
2.60002e-05
2.60003e-05
2.60004e-05
2.60006e-05
2.60009e-05
2.60014e-05
2.60019e-05
2.60025e-05
2.60024e-05
2.60016e-05
2.60019e-05
2.60052e-05
2.60109e-05
2.60183e-05
2.60269e-05
2.60363e-05
2.6046e-05
2.6056e-05
2.60643e-05
2.60601e-05
2.60451e-05
2.60444e-05
2.60565e-05
2.60778e-05
2.61022e-05
2.61262e-05
2.61422e-05
2.61377e-05
2.61072e-05
2.60691e-05
2.60764e-05
2.61721e-05
2.60001e-05
2.60001e-05
2.60001e-05
2.60001e-05
2.60001e-05
2.60001e-05
2.60001e-05
2.60001e-05
2.60001e-05
2.60001e-05
2.60001e-05
2.60002e-05
2.60002e-05
2.60002e-05
2.60002e-05
2.60002e-05
2.60003e-05
2.60003e-05
2.60005e-05
2.60007e-05
2.6001e-05
2.60015e-05
2.6002e-05
2.60025e-05
2.60023e-05
2.60014e-05
2.60022e-05
2.60063e-05
2.60129e-05
2.60213e-05
2.60311e-05
2.60416e-05
2.60525e-05
2.60634e-05
2.60732e-05
2.60725e-05