/*--------------------------------*- C++ -*----------------------------------*\
  =========                 |
  \\      /  F ield         | OpenFOAM: The Open Source CFD Toolbox
   \\    /   O peration     | Website:  https://openfoam.org
    \\  /    A nd           | Version:  10
     \\/     M anipulation  |
\*---------------------------------------------------------------------------*/
FoamFile
{
    format      ascii;
    class       volScalarField;
    location    "5";
    object      p;
}
// * * * * * * * * * * * * * * * * * * * * * * * * * * * * * * * * * * * * * //

dimensions      [0 2 -2 0 0 0 0];

internalField   nonuniform List<scalar> 
38016
(
1.37059
1.49242
1.62072
1.69734
1.74909
1.78621
1.81247
1.82778
1.82895
1.80912
1.75686
1.65482
1.47814
1.1938
0.760566
0.129401
-0.756297
-1.96289
-3.57292
-5.697
-8.49248
-12.1901
-17.0904
-23.9121
-32.3298
-40.8712
-48.42
-53.7882
-56.2169
-55.2369
-50.6832
-42.6822
-31.5828
-17.8674
-2.07839
15.2357
33.5598
52.4356
71.4726
90.357
108.848
126.806
144.207
161.128
177.751
194.339
211.609
232.097
1.39044
1.51304
1.64305
1.72113
1.77432
1.81298
1.84098
1.85831
1.86184
1.84473
1.79555
1.69685
1.5236
1.24242
0.811504
0.181031
-0.706664
-1.91934
-3.54143
-5.68619
-8.51486
-12.2639
-17.2425
-24.1779
-32.7096
-41.4413
-49.197
-54.7662
-57.3739
-56.5383
-52.0876
-44.1489
-33.0778
-19.3686
-3.57734
13.7339
32.0379
50.8668
69.8249
88.5969
106.947
124.74
141.953
158.663
175.046
191.359
208.325
228.167
1.4103
1.53358
1.66526
1.74477
1.79936
1.83953
1.86923
1.88854
1.89437
1.87992
1.83375
1.73833
1.56843
1.29034
0.861674
0.231838
-0.65789
-1.87667
-3.51083
-5.67634
-8.53844
-12.3397
-17.399
-24.4541
-33.1239
-42.0615
-50.0424
-55.8327
-58.6415
-57.9759
-53.6595
-45.823
-34.8326
-21.197
-5.48876
11.7146
29.8729
48.5093
67.2243
85.7034
103.717
121.14
137.95
154.22
170.119
185.902
202.259
220.874
1.43021
1.55416
1.6875
1.76844
1.82443
1.8661
1.89752
1.9188
1.92693
1.91514
1.87197
1.77982
1.61327
1.33823
0.911783
0.282544
-0.609264
-1.83419
-3.48043
-5.6666
-8.56186
-12.4145
-17.5524
-24.7207
-33.5485
-42.6969
-50.9117
-56.9381
-59.9725
-59.5137
-55.3841
-47.7206
-36.9019
-23.453
-7.96368
8.97299
26.8046
45.047
63.2982
81.2471
98.6731
115.458
131.583
147.118
162.217
177.123
192.431
209.313
1.45017
1.57477
1.70975
1.79212
1.8495
1.89269
1.92581
1.94908
1.95951
1.95039
1.91023
1.82137
1.65818
1.38623
0.962044
0.333458
-0.560357
-1.79133
-3.44955
-5.6563
-8.58473
-12.4892
-17.7071
-24.9933
-33.9817
-43.3533
-51.8198
-58.1066
-61.3977
-61.1848
-57.2907
-49.8608
-39.2885
-26.1173
-10.9562
5.58479
22.9408
40.6204
58.2209
75.4355
92.054
107.967
123.158
137.69
151.704
165.414
179.292
194.119
1.47017
1.5954
1.73201
1.8158
1.87458
1.91928
1.95411
1.97936
1.99211
1.98565
1.94851
1.86294
1.70311
1.43427
1.01236
0.384449
-0.511342
-1.74832
-3.41845
-5.64569
-8.6072
-12.5635
-17.8614
-25.2662
-34.4209
-44.0239
-52.7544
-59.3196
-62.8918
-62.9577
-59.3426
-52.2027
-41.9489
-29.1454
-14.4218
1.59434
18.3257
35.2749
52.0406
68.3229
83.9234
98.7431
112.77
126.064
138.749
151.009
163.2
175.825
1.49022
1.61606
1.75429
1.8395
1.89968
1.94588
1.98242
2.00966
2.02471
2.02093
1.98681
1.90453
1.74809
1.48235
1.06273
0.43551
-0.462232
-1.70519
-3.38719
-5.63489
-8.62949
-12.6377
-18.0162
-25.5414
-34.8668
-44.7097
-53.7172
-60.5791
-64.458
-64.8366
-61.5454
-54.754
-44.8929
-32.5492
-18.3745
-3.01391
12.9438
28.9979
44.7508
59.9137
74.3036
87.8357
100.507
112.379
123.564
134.222
144.618
155.043
1.51031
1.63674
1.77657
1.8632
1.92477
1.97249
2.01074
2.03996
2.05733
2.05622
2.02513
1.94615
1.79309
1.53046
1.11315
0.486632
-0.413047
-1.66196
-3.35581
-5.62397
-8.6517
-12.712
-18.1719
-25.8192
-35.3205
-45.4123
-54.7107
-61.8897
-66.1031
-66.8319
-63.9139
-57.5347
-48.147
-36.3624
-22.8548
-8.28666
6.74447
21.7377
36.3046
50.1729
63.1805
75.2631
86.4342
96.7631
106.359
115.369
123.991
132.351
1.53046
1.65745
1.79887
1.88691
1.94988
1.9991
2.03907
2.07028
2.08996
2.09153
2.06347
1.98779
1.83811
1.57862
1.16362
0.537812
-0.363795
-1.61865
-3.32436
-5.61298
-8.67392
-12.7866
-18.3285
-26.1001
-35.7827
-46.1334
-55.7382
-63.2569
-67.8358
-68.9563
-66.466
-60.5688
-51.7419
-40.6225
-27.9068
-14.2722
-0.321616
13.4496
26.6688
39.0879
50.5735
61.09
70.6747
79.4129
87.418
94.8298
101.804
108.324
1.55066
1.67819
1.82118
1.91064
1.975
2.02573
2.06741
2.10061
2.12261
2.12685
2.10182
2.02945
1.88318
1.62681
1.21413
0.589045
-0.314482
-1.57529
-3.29285
-5.60197
-8.69623
-12.8616
-18.4864
-26.3843
-36.2542
-46.8746
-56.803
-64.6862
-69.6649
-71.2229
-69.2198
-63.8803
-55.7078
-45.3653
-33.5702
-21.0114
-8.29149
4.10728
15.837
26.6829
36.5496
45.4377
53.4156
60.589
67.0781
73.0179
78.533
83.4887
1.57091
1.69896
1.8435
1.93437
2.00012
2.05236
2.09575
2.13094
2.15527
2.16219
2.1402
2.07114
1.92827
1.67505
1.26469
0.640328
-0.265119
-1.53188
-3.26133
-5.59101
-8.71874
-12.9372
-18.6457
-26.6723
-36.7358
-47.6378
-57.9084
-66.1837
-71.6
-73.6454
-72.194
-67.4934
-60.0741
-50.6248
-39.8807
-28.5373
-17.189
-6.29549
3.83055
13.0181
21.2182
28.4743
34.888
40.585
45.6897
50.3292
54.6025
58.2719
1.59122
1.71976
1.86584
1.95811
2.02525
2.079
2.12411
2.16129
2.18794
2.19755
2.17861
2.11287
1.9734
1.72332
1.31529
0.691657
-0.21572
-1.48846
-3.22984
-5.58018
-8.74156
-13.0135
-18.8067
-26.9646
-37.2283
-48.425
-59.0585
-67.7559
-73.651
-76.2383
-75.4081
-71.4329
-64.8702
-56.4324
-46.8687
-36.8734
-27.0232
-17.7438
-9.30125
-1.81314
4.72436
10.3993
15.344
19.6979
23.5828
27.1114
30.3595
32.9975
1.61157
1.74059
1.88819
1.98186
2.05039
2.10565
2.15248
2.19165
2.22063
2.23293
2.21704
2.15462
2.01856
1.77163
1.36593
0.743027
-0.166296
-1.44505
-3.19843
-5.56957
-8.76485
-13.0907
-18.9699
-27.2617
-37.7328
-49.2382
-60.2571
-69.4097
-75.8288
-79.0168
-78.8823
-75.7231
-70.1236
-62.8163
-54.5578
-46.0321
-37.7865
-30.2006
-23.4827
-17.6896
-12.7624
-8.57207
-4.96378
-1.79413
1.04663
3.65052
6.07034
7.89569
1.63198
1.76145
1.91055
2.00562
2.07554
2.13231
2.18086
2.22203
2.25333
2.26833
2.25549
2.19641
2.06377
1.81999
1.41663
0.794432
-0.116863
-1.40169
-3.16718
-5.55927
-8.78876
-13.1692
-19.1355
-27.5642
-38.2504
-50.0799
-61.509
-71.1528
-78.1446
-81.9964
-82.6365
-80.388
-75.8598
-69.7998
-62.9634
-56.013
-49.4541
-43.6074
-38.615
-34.4691
-31.0591
-28.224
-25.7983
-23.6465
-21.6792
-19.8304
-18.0695
-16.8774
1.65245
1.78234
1.93293
2.02939
2.1007
2.15898
2.20924
2.25242
2.28606
2.30376
2.29397
2.23823
2.10902
1.8684
1.46736
0.845869
-0.0674366
-1.35841
-3.13614
-5.54942
-8.81349
-13.2492
-19.3039
-27.8728
-38.7821
-50.9527
-62.8186
-72.9927
-80.61
-85.1933
-86.6907
-85.45
-82.1012
-77.4002
-72.0911
-66.8021
-61.9833
-57.8863
-54.5809
-51.9968
-49.9805
-48.3519
-46.9486
-45.6536
-44.4043
-43.1638
-41.9224
-41.2204
1.67297
1.80327
1.95532
2.05317
2.12587
2.18566
2.23765
2.28282
2.3188
2.3392
2.33249
2.28009
2.15431
1.91686
1.51815
0.897334
-0.018033
-1.31526
-3.1054
-5.54015
-8.83927
-13.331
-19.4758
-28.1881
-39.3294
-51.8591
-64.1911
-74.9378
-83.2371
-88.6231
-91.064
-90.9298
-88.8659
-85.6279
-81.9363
-78.3713
-75.3153
-72.9429
-71.2512
-70.1145
-69.3497
-68.7723
-68.2361
-67.6508
-66.9846
-66.2303
-65.3968
-65.0742
1.69355
1.82423
1.97773
2.07696
2.15104
2.21235
2.26606
2.31324
2.35156
2.37468
2.37104
2.322
2.19966
1.96538
1.56899
0.948827
0.031332
-1.27227
-3.07504
-5.53162
-8.86633
-13.4151
-19.6517
-28.5111
-39.8936
-52.8021
-65.6316
-76.9963
-86.0378
-92.3018
-95.7747
-96.8454
-96.1676
-94.4856
-92.4831
-90.6788
-89.377
-88.6716
-88.4916
-88.6685
-89.0048
-89.327
-89.5148
-89.5105
-89.3142
-88.9472
-88.4346
-88.4064
1.71419
1.84522
2.00015
2.10077
2.17623
2.23905
2.29449
2.34368
2.38434
2.41018
2.40962
2.36395
2.24507
2.01397
1.6199
1.00035
0.0806447
-1.22949
-3.04516
-5.52398
-8.89497
-13.5018
-19.8321
-28.8426
-40.4762
-53.7848
-67.1456
-79.1768
-89.0243
-96.2442
-100.839
-103.211
-104.014
-103.967
-103.705
-103.67
-104.084
-104.959
-106.168
-107.515
-108.803
-109.883
-110.669
-111.136
-111.317
-111.259
-111
-111.202
1.73488
1.86625
2.02259
2.12458
2.20144
2.26577
2.32293
2.37414
2.41715
2.44571
2.44824
2.40595
2.29054
2.06262
1.67086
1.0519
0.129892
-1.18696
-3.01586
-5.51744
-8.92548
-13.5916
-20.0178
-29.1837
-41.0788
-54.8101
-68.7384
-81.4878
-92.2081
-100.465
-106.272
-110.039
-112.406
-114.058
-115.563
-117.281
-119.343
-121.691
-124.154
-126.523
-128.623
-130.334
-131.608
-132.456
-132.939
-133.128
-133.072
-133.455
1.75565
1.88732
2.04505
2.14841
2.22665
2.29249
2.35139
2.40461
2.44998
2.48128
2.48691
2.448
2.33607
2.11135
1.7219
1.10347
0.179056
-1.14473
-2.98723
-5.51218
-8.95821
-13.6851
-20.2096
-29.5354
-41.7031
-55.8814
-70.4155
-83.9375
-95.6004
-104.976
-112.085
-117.333
-121.339
-124.735
-128.01
-131.436
-135.057
-138.754
-142.329
-145.581
-148.362
-150.593
-152.264
-153.419
-154.145
-154.534
-154.642
-155.17
1.77647
1.90843
2.06752
2.17226
2.25187
2.31924
2.37987
2.43511
2.48285
2.51688
2.52562
2.49012
2.38168
2.16016
1.773
1.15506
0.228109
-1.10287
-2.95941
-5.50842
-8.99351
-13.7828
-20.4083
-29.8989
-42.3508
-57.0017
-72.1823
-86.5339
-99.2115
-109.789
-118.286
-125.096
-130.8
-135.963
-140.99
-146.055
-151.128
-156.041
-160.589
-164.592
-167.939
-170.595
-172.587
-173.99
-174.913
-175.464
-175.708
-176.355
1.79736
1.92957
2.09001
2.19611
2.27711
2.34599
2.40836
2.46563
2.51574
2.55252
2.56439
2.5323
2.42737
2.20905
1.82417
1.20666
0.277022
-1.06144
-2.93253
-5.50642
-9.03178
-13.8853
-20.6147
-30.2755
-43.0238
-58.1744
-74.044
-89.2844
-103.05
-114.911
-124.88
-133.322
-140.767
-147.704
-154.438
-161.056
-167.459
-173.454
-178.84
-183.475
-187.289
-190.29
-192.542
-194.145
-195.23
-195.916
-196.275
-197.02
1.81832
1.95076
2.11252
2.21999
2.30237
2.37277
2.43688
2.49618
2.54866
2.58821
2.60322
2.57456
2.47314
2.25805
1.87543
1.25827
0.325762
-1.02053
-2.90676
-5.50646
-9.0735
-13.9933
-20.8299
-30.6663
-43.7238
-59.4024
-76.0052
-92.1954
-107.124
-120.351
-131.867
-142
-151.215
-159.907
-168.287
-176.355
-183.961
-190.903
-197.005
-202.165
-206.362
-209.643
-212.104
-213.872
-215.09
-215.89
-216.349
-217.178
1.83936
1.972
2.13505
2.24388
2.32764
2.39956
2.46542
2.52676
2.58163
2.62394
2.6421
2.6169
2.51902
2.30714
1.92676
1.30987
0.374293
-0.980225
-2.88229
-5.50889
-9.1192
-14.1076
-21.0548
-31.0727
-44.4526
-60.6886
-78.0702
-95.2723
-111.438
-126.108
-139.243
-151.114
-162.107
-172.52
-182.465
-191.869
-200.55
-208.313
-215.019
-220.613
-225.12
-228.627
-231.259
-233.162
-234.493
-235.393
-235.94
-236.844
1.86046
1.99328
2.1576
2.26778
2.35292
2.42637
2.49398
2.55737
2.61463
2.65973
2.68106
2.65932
2.565
2.35635
1.97818
1.36146
0.422578
-0.940626
-2.85931
-5.51403
-9.16944
-14.2291
-21.2906
-31.4961
-45.2117
-62.0353
-80.2423
-98.519
-115.995
-132.183
-146.997
-160.639
-173.403
-185.483
-196.899
-207.521
-217.152
-225.619
-232.83
-238.779
-243.537
-247.227
-249.998
-252.014
-253.442
-254.431
-255.059
-256.032
1.88164
2.01461
2.18017
2.2917
2.37823
2.4532
2.52257
2.58801
2.64768
2.69558
2.7201
2.70185
2.6111
2.40569
2.0297
1.41303
0.470575
-0.901833
-2.83802
-5.52228
-9.22483
-14.3586
-21.5386
-31.9378
-46.0026
-63.4445
-82.5239
-101.937
-120.796
-138.57
-155.114
-170.546
-185.056
-198.735
-211.52
-223.24
-233.701
-242.767
-250.397
-256.636
-261.597
-265.434
-268.32
-270.432
-271.944
-273.012
-273.715
-274.751
1.9029
2.03599
2.20277
2.31565
2.40355
2.48006
2.55118
2.61868
2.68078
2.7315
2.75922
2.74448
2.65733
2.45516
2.08132
1.46457
0.518241
-0.863957
-2.81866
-5.53401
-9.28603
-14.4971
-21.8002
-32.3995
-46.8268
-64.9175
-84.916
-105.528
-125.836
-145.259
-163.573
-180.799
-197.016
-212.213
-226.259
-238.96
-250.143
-259.716
-267.692
-274.167
-279.292
-283.248
-286.229
-288.422
-290.009
-291.147
-291.92
-293.013
1.92424
2.05742
2.22539
2.33961
2.42889
2.50693
2.57983
2.6494
2.71393
2.76748
2.79844
2.78724
2.70371
2.50479
2.13305
1.51608
0.565533
-0.827111
-2.80145
-5.54966
-9.3537
-14.6457
-22.0768
-32.8828
-47.6854
-66.4545
-87.4178
-109.286
-131.108
-152.234
-172.347
-191.356
-209.227
-225.854
-241.053
-254.625
-266.431
-276.432
-284.695
-291.363
-296.621
-300.678
-303.739
-306.004
-307.659
-308.864
-309.704
-310.851
1.94567
2.0789
2.24804
2.36359
2.45426
2.53384
2.60851
2.68016
2.74714
2.80354
2.83775
2.83012
2.75024
2.55458
2.18489
1.56754
0.612408
-0.791409
-2.78663
-5.56965
-9.42854
-14.8053
-22.3695
-33.3892
-48.5799
-68.0545
-90.0265
-113.207
-136.601
-159.474
-181.403
-202.172
-221.633
-239.596
-255.842
-270.185
-282.529
-292.893
-301.396
-308.224
-313.596
-317.739
-320.874
-323.207
-324.929
-326.2
-327.108
-328.312
1.96718
2.10045
2.27071
2.3876
2.47965
2.56077
2.63722
2.71097
2.78041
2.83969
2.87719
2.87315
2.79695
2.60454
2.23687
1.61896
0.65882
-0.756971
-2.77444
-5.59442
-9.51126
-14.977
-22.6799
-33.9203
-49.5113
-69.7162
-92.7363
-117.28
-142.296
-166.953
-190.701
-213.196
-234.174
-253.379
-270.573
-285.597
-298.409
-309.083
-317.789
-324.755
-330.226
-334.449
-337.654
-340.055
-341.844
-343.183
-344.163
-345.426
1.98879
2.12206
2.29342
2.41163
2.50506
2.58773
2.66597
2.74183
2.81376
2.87594
2.91674
2.91634
2.84384
2.65471
2.28899
1.67033
0.704728
-0.723912
-2.76514
-5.6244
-9.60256
-15.1618
-23.0092
-34.4773
-50.4808
-71.4379
-95.5388
-121.491
-148.171
-174.637
-200.198
-224.373
-246.793
-267.147
-285.198
-300.827
-314.048
-324.991
-333.876
-340.964
-346.527
-350.826
-354.101
-356.571
-358.43
-359.841
-360.895
-362.222
2.01049
2.14372
2.31615
2.43569
2.5305
2.61472
2.69477
2.77275
2.84718
2.91228
2.95643
2.95971
2.89094
2.7051
2.34127
1.72164
0.750091
-0.692348
-2.75895
-5.66003
-9.70314
-15.3608
-23.3586
-35.0615
-51.4887
-73.2172
-98.4235
-125.818
-154.197
-182.486
-209.843
-235.646
-259.43
-280.846
-299.674
-315.845
-329.429
-340.613
-349.659
-356.862
-362.514
-366.889
-370.237
-372.779
-374.712
-376.197
-377.33
-378.725
2.0323
2.16546
2.33891
2.45977
2.55597
2.64175
2.72361
2.80373
2.88068
2.94874
2.99627
3.00326
2.93827
2.75572
2.39372
1.77289
0.794872
-0.662386
-2.75611
-5.70172
-9.81366
-15.5748
-23.7294
-35.6736
-52.5347
-75.0511
-101.38
-130.237
-160.337
-190.452
-219.579
-246.954
-272.025
-294.424
-313.962
-330.623
-344.539
-355.944
-365.143
-372.458
-378.201
-382.657
-386.082
-388.701
-390.713
-392.278
-393.494
-394.962
2.05421
2.18727
2.36171
2.48389
2.58147
2.66882
2.7525
2.83477
2.91428
2.98532
3.03627
3.04701
2.98585
2.8066
2.44636
1.8241
0.83904
-0.634127
-2.75684
-5.74986
-9.93474
-15.8047
-24.1223
-36.3144
-53.6181
-76.935
-104.395
-134.718
-166.544
-198.48
-229.344
-258.232
-284.519
-307.834
-328.026
-345.14
-359.365
-370.982
-380.332
-387.763
-393.603
-398.146
-401.656
-404.359
-406.455
-408.105
-409.411
-410.957
2.07622
2.20915
2.38455
2.50803
2.60701
2.69593
2.78145
2.86589
2.94797
3.02203
3.07645
3.09099
3.03369
2.85776
2.4992
1.87526
0.882569
-0.607656
-2.76131
-5.80479
-10.0669
-16.0513
-24.5383
-36.9842
-54.7373
-78.8617
-107.458
-139.234
-172.766
-206.504
-239.067
-269.413
-296.853
-321.026
-341.83
-359.373
-373.896
-385.725
-395.231
-402.786
-408.731
-413.372
-416.974
-419.77
-421.957
-423.699
-425.1
-426.731
2.09835
2.23111
2.40742
2.53221
2.63258
2.72308
2.81045
2.89709
2.98176
3.05888
3.11681
3.13521
3.08182
2.90922
2.55228
1.92638
0.925443
-0.583042
-2.7697
-5.86681
-10.2106
-16.315
-24.9777
-37.6827
-55.89
-80.8229
-110.55
-143.757
-178.952
-214.448
-248.671
-280.424
-308.966
-333.952
-355.341
-373.298
-388.119
-400.166
-409.84
-417.532
-423.595
-428.344
-432.051
-434.947
-437.234
-439.075
-440.578
-442.3
2.12061
2.25315
2.43033
2.55642
2.65818
2.75028
2.83951
2.92836
3.01567
3.09589
3.15737
3.17969
3.13025
2.96101
2.60562
1.97749
0.967658
-0.560334
-2.78212
-5.93611
-10.3662
-16.5963
-25.4406
-38.4093
-57.0729
-82.8084
-113.651
-148.26
-185.057
-222.24
-258.066
-291.186
-320.791
-346.562
-368.52
-386.892
-402.019
-414.298
-424.156
-432
-438.197
-443.069
-446.891
-449.899
-452.295
-454.242
-455.855
-457.676
2.14298
2.27527
2.45329
2.58067
2.68383
2.77753
2.86864
2.95973
3.0497
3.13306
3.19815
3.22444
3.17903
3.01316
2.65924
2.02861
1.00922
-0.539553
-2.79863
-6.01283
-10.5337
-16.8952
-25.9267
-39.1626
-58.2817
-84.8061
-116.738
-152.704
-191.034
-229.817
-267.169
-301.612
-332.259
-358.803
-381.328
-400.123
-415.574
-428.105
-438.168
-446.184
-452.534
-457.544
-461.495
-464.626
-467.142
-469.204
-470.934
-472.862
2.16549
2.29749
2.47629
2.60497
2.70952
2.80483
2.89784
2.99119
3.08386
3.1704
3.23916
3.26949
3.22815
3.06569
2.71317
2.07976
1.05015
-0.520691
-2.81926
-6.097
-10.7132
-17.2115
-26.4353
-39.9404
-59.511
-86.8022
-119.784
-157.05
-196.834
-237.12
-275.905
-311.615
-343.292
-370.615
-393.72
-412.957
-428.756
-441.566
-451.858
-460.071
-466.592
-471.758
-475.854
-479.121
-481.766
-483.953
-485.808
-487.852
2.18813
2.3198
2.49934
2.6293
2.73526
2.83219
2.92711
3.02275
3.11815
3.20793
3.28042
3.31486
3.27766
3.11863
2.76745
2.13098
1.0905
-0.503705
-2.84394
-6.18851
-10.9045
-17.5447
-26.9649
-40.74
-60.7539
-88.7811
-122.76
-161.255
-202.402
-244.088
-284.215
-321.121
-353.812
-381.932
-405.643
-425.352
-441.53
-454.65
-465.201
-473.636
-480.352
-485.693
-489.949
-493.366
-496.152
-498.473
-500.463
-502.63
2.21092
2.34221
2.52244
2.65368
2.76105
2.85961
2.95647
3.05442
3.15259
3.24565
3.32194
3.36056
3.32758
3.17202
2.82211
2.18232
1.13031
-0.488508
-2.87253
-6.28711
-11.1071
-17.8937
-27.5137
-41.5575
-62.0024
-90.7251
-125.634
-165.273
-207.683
-250.656
-292.033
-330.072
-363.746
-392.683
-417.038
-437.257
-453.851
-467.318
-478.16
-486.845
-493.78
-499.317
-503.75
-507.331
-510.271
-512.737
-514.869
-517.171
2.23385
2.36473
2.54559
2.67811
2.78689
2.88709
2.98591
3.0862
3.18719
3.28358
3.36373
3.40661
3.37792
3.22588
2.87719
2.23383
1.16968
-0.47497
-2.90482
-6.39242
-11.3202
-18.2572
-28.079
-42.3881
-63.2469
-92.6148
-128.375
-169.056
-212.614
-256.76
-299.291
-338.404
-373.035
-402.799
-427.838
-448.613
-465.667
-479.518
-490.688
-499.653
-506.834
-512.587
-517.216
-520.976
-524.082
-526.703
-528.989
-531.433
2.25695
2.38736
2.56879
2.70259
2.81279
2.91464
3.01543
3.11811
3.22195
3.32173
3.40581
3.45303
3.42871
3.28024
2.93275
2.28558
1.20871
-0.462909
-2.94049
-6.50386
-11.5428
-18.6333
-28.6575
-43.226
-64.4762
-94.4288
-130.946
-172.552
-217.138
-262.336
-305.919
-346.05
-381.616
-412.216
-437.975
-459.353
-476.913
-491.192
-502.725
-512.003
-519.455
-525.449
-530.293
-534.247
-537.532
-540.32
-542.768
-545.365
2.28021
2.4101
2.59206
2.72712
2.83874
2.94227
3.04505
3.15014
3.25688
3.36011
3.4482
3.49984
3.47999
3.33515
2.98883
2.33766
1.24754
-0.452087
-2.97911
-6.62067
-11.7736
-19.0196
-29.2449
-44.0642
-65.6777
-96.1443
-133.313
-175.712
-221.195
-267.325
-311.849
-352.936
-389.419
-420.865
-447.376
-469.404
-487.516
-502.266
-514.201
-523.825
-531.577
-537.834
-542.911
-547.076
-550.553
-553.519
-556.139
-558.899
2.30364
2.43296
2.61539
2.75171
2.86476
2.96997
3.07477
3.1823
3.29198
3.39873
3.4909
3.54707
3.53177
3.39063
3.04548
2.39015
1.28632
-0.442206
-3.02015
-6.74189
-12.0108
-19.4132
-29.8365
-44.8946
-66.8372
-97.737
-135.438
-178.485
-224.721
-271.655
-317.015
-358.989
-396.364
-428.664
-455.96
-478.683
-497.395
-512.659
-525.034
-535.037
-543.118
-549.661
-554.991
-559.382
-563.065
-566.22
-569.022
-571.955
2.32725
2.45596
2.63879
2.77636
2.89084
2.99775
3.1046
3.2146
3.32727
3.4376
3.53393
3.59472
3.58408
3.44673
3.10277
2.44317
1.32527
-0.432902
-3.06294
-6.86633
-12.2524
-19.8105
-30.4263
-45.708
-67.9392
-99.1812
-137.284
-180.822
-227.652
-275.26
-321.351
-364.137
-402.374
-435.531
-463.64
-487.098
-506.455
-522.276
-535.13
-545.545
-553.981
-560.834
-566.437
-571.071
-574.972
-578.327
-581.321
-584.437
2.35105
2.47909
2.66225
2.80107
2.91699
3.02561
3.13453
3.24704
3.36276
3.47673
3.57731
3.64281
3.63694
3.50348
3.16078
2.49684
1.36462
-0.423741
-3.10669
-6.99259
-12.496
-20.2076
-31.0078
-46.4939
-68.9667
-100.451
-138.814
-182.676
-229.932
-278.08
-324.798
-368.306
-407.369
-441.38
-470.32
-494.55
-514.593
-531.011
-544.381
-555.24
-564.06
-571.245
-577.14
-582.032
-586.165
-589.732
-592.928
-596.237
2.37505
2.50236
2.68579
2.82585
2.94321
3.05356
3.16457
3.27963
3.39845
3.51613
3.62104
3.69137
3.69038
3.56093
3.21956
2.5513
1.40462
-0.414215
-3.15048
-7.11902
-12.7387
-20.5996
-31.5735
-47.2409
-69.9016
-101.519
-139.993
-184.002
-231.506
-280.05
-327.286
-371.428
-411.264
-446.118
-475.902
-500.931
-521.697
-538.75
-552.67
-564.004
-573.233
-580.774
-586.979
-592.145
-596.523
-600.312
-603.719
-607.232
2.39926
2.52578
2.70941
2.8507
2.96951
3.0816
3.19473
3.31238
3.43434
3.5558
3.66514
3.7404
3.74443
3.61912
3.27922
2.60671
1.4456
-0.403742
-3.19323
-7.24374
-12.9773
-20.9814
-32.1153
-47.9365
-70.725
-102.359
-140.785
-184.756
-232.323
-281.101
-328.741
-373.434
-413.977
-449.648
-480.279
-506.129
-527.647
-545.367
-559.869
-571.706
-581.37
-589.287
-595.819
-601.274
-605.909
-609.932
-613.558
-617.285
2.42369
2.54936
2.7331
2.87563
2.99589
3.10974
3.22502
3.34529
3.47045
3.59576
3.70962
3.78993
3.79912
3.67811
3.33984
2.66326
1.48791
-0.391659
-3.23374
-7.36462
-13.2083
-21.3472
-32.6243
-48.5675
-71.4175
-102.945
-141.159
-184.902
-232.337
-281.18
-329.113
-374.27
-415.434
-451.878
-483.344
-510.023
-532.316
-550.731
-565.841
-578.206
-588.327
-596.64
-603.517
-609.274
-614.179
-618.445
-622.301
-626.251
2.44834
2.5731
2.75689
2.90063
3.02236
3.13799
3.25543
3.37836
3.50678
3.63602
3.75449
3.83997
3.85446
3.73795
3.40152
2.72115
1.53194
-0.377224
-3.27066
-7.47932
-13.4277
-21.6907
-33.0909
-49.12
-71.9592
-103.252
-141.086
-184.405
-231.509
-280.238
-328.33
-373.863
-415.565
-452.718
-484.993
-512.497
-535.577
-554.705
-570.446
-583.361
-593.958
-602.684
-609.921
-615.993
-621.179
-625.697
-629.79
-633.974
2.47324
2.59702
2.78076
2.92571
3.04891
3.16633
3.28598
3.41161
3.54333
3.67657
3.79976
3.89054
3.91051
3.79868
3.46439
2.78061
1.57812
-0.359622
-3.30252
-7.58527
-13.6313
-22.0053
-33.5053
-49.5797
-72.3309
-103.257
-140.541
-183.237
-229.806
-278.232
-326.329
-372.142
-414.313
-452.093
-485.128
-513.44
-537.306
-557.16
-573.545
-587.025
-598.114
-607.267
-614.875
-621.275
-626.751
-631.531
-635.869
-640.296
2.49839
2.62112
2.80473
2.95089
3.07555
3.19479
3.31666
3.44504
3.58012
3.71744
3.84543
3.94165
3.96727
3.86038
3.52855
2.84187
1.62693
-0.337957
-3.3277
-7.6797
-13.8145
-22.284
-33.8572
-49.9324
-72.5136
-102.94
-139.501
-181.376
-227.202
-275.129
-323.066
-369.055
-411.623
-449.947
-483.676
-512.76
-537.398
-557.975
-575.01
-589.063
-600.653
-610.242
-618.232
-624.967
-630.742
-635.792
-640.381
-645.061
2.52379
2.64541
2.82881
2.97615
3.1023
3.22336
3.34749
3.47864
3.61715
3.75861
3.89153
3.99332
4.02479
3.92311
3.59415
2.9052
1.67888
-0.311272
-3.34448
-7.7597
-13.9727
-22.5196
-34.1362
-50.1639
-72.4899
-102.281
-137.952
-178.808
-223.679
-270.902
-318.504
-364.541
-407.439
-446.248
-480.591
-510.391
-535.771
-557.057
-574.738
-589.363
-601.456
-611.486
-619.862
-626.937
-633.016
-638.342
-643.188
-648.129
2.54948
2.6699
2.85299
3.00151
3.12914
3.25205
3.37846
3.51244
3.65442
3.80012
3.93806
4.04557
4.08309
3.98693
3.66132
2.97089
1.73452
-0.278544
-3.35107
-7.82222
-14.101
-22.7047
-34.3322
-50.2606
-72.2437
-101.267
-135.883
-175.525
-219.228
-265.537
-312.617
-358.556
-401.71
-440.968
-475.858
-506.308
-532.386
-554.359
-572.669
-587.857
-600.446
-610.912
-619.673
-627.091
-633.476
-639.082
-644.187
-649.398
2.57545
2.69461
2.87728
3.02697
3.1561
3.28086
3.40958
3.54643
3.69195
3.84195
3.98502
4.09842
4.14222
4.05192
3.73021
3.03924
1.79443
-0.238708
-3.34558
-7.86414
-14.1944
-22.8323
-34.4353
-50.21
-71.7614
-99.8874
-133.288
-171.528
-213.85
-259.027
-305.387
-351.071
-394.385
-434.078
-469.504
-500.54
-527.271
-549.902
-568.821
-584.554
-597.626
-608.518
-617.656
-625.41
-632.1
-637.986
-643.35
-648.835
2.60172
2.71953
2.90169
3.05254
3.18316
3.30981
3.44087
3.58062
3.72973
3.88412
4.03244
4.15188
4.20221
4.11816
3.80099
3.11055
1.85922
-0.19066
-3.3261
-7.88231
-14.2483
-22.8953
-34.4361
-50.0006
-71.0316
-98.136
-130.17
-166.823
-207.555
-251.378
-296.807
-342.065
-385.424
-425.525
-461.531
-493.173
-520.535
-543.811
-563.331
-579.599
-593.139
-604.444
-613.946
-622.026
-629.013
-635.174
-640.793
-646.555
2.6283
2.74469
2.92622
3.07822
3.21035
3.33889
3.47232
3.61502
3.76777
3.92663
4.08032
4.20597
4.26309
4.18572
3.87381
3.18516
1.9295
-0.133283
-3.29072
-7.87365
-14.2578
-22.8872
-34.3262
-49.6226
-70.0459
-96.011
-126.536
-161.429
-200.364
-242.605
-286.88
-331.521
-374.796
-415.241
-451.875
-484.254
-512.35
-536.322
-556.484
-573.32
-587.351
-599.078
-608.948
-617.352
-624.632
-631.063
-636.929
-642.965
2.65521
2.77009
2.95088
3.10402
3.23766
3.36811
3.50394
3.64963
3.80609
3.9695
4.12867
4.26072
4.32491
4.25469
3.94884
3.26339
2.0059
-0.0654587
-3.23754
-7.83516
-14.2186
-22.802
-34.0982
-49.0682
-68.7991
-93.5156
-122.4
-155.37
-192.308
-232.738
-275.622
-319.436
-362.468
-403.178
-440.445
-473.682
-502.727
-527.621
-548.62
-566.182
-580.836
-593.097
-603.427
-612.233
-619.866
-626.616
-632.761
-639.099
2.68246
2.79575
2.97569
3.12994
3.2651
3.39749
3.53574
3.68446
3.84469
4.01273
4.17751
4.31615
4.38772
4.32515
4.02626
3.34559
2.08903
0.013907
-3.16474
-7.76401
-14.1267
-22.6343
-33.746
-48.3315
-67.2891
-90.6572
-117.782
-148.677
-183.428
-221.818
-263.064
-305.815
-348.416
-389.271
-427.133
-461.278
-491.425
-517.497
-539.645
-558.266
-573.876
-586.993
-598.086
-607.573
-615.821
-623.134
-629.798
-636.667
2.71006
2.82168
3.00063
3.15599
3.29267
3.42702
3.56773
3.71952
3.88357
4.05634
4.22685
4.37227
4.45154
4.39719
4.10623
3.43208
2.1795
0.105869
-3.07062
-7.65761
-13.9783
-22.3798
-33.2647
-47.4088
-65.5173
-87.4479
-112.707
-141.392
-173.775
-209.899
-249.248
-290.678
-332.624
-373.459
-411.826
-446.851
-478.121
-505.46
-528.926
-548.82
-565.608
-579.793
-591.85
-602.208
-611.251
-619.299
-626.657
-634.227
2.73804
2.84789
3.02574
3.18218
3.32039
3.45671
3.59991
3.75482
3.92276
4.10034
4.27671
4.42912
4.51644
4.47089
4.18894
3.52318
2.27791
0.211425
-2.95358
-7.51366
-13.7705
-22.0348
-32.6509
-46.2986
-63.4882
-83.9034
-107.206
-133.56
-163.408
-197.045
-234.233
-274.063
-315.093
-355.695
-394.416
-430.223
-462.561
-491.151
-515.938
-537.113
-555.092
-570.363
-583.4
-594.646
-604.497
-613.288
-621.345
-629.621
2.76639
2.87439
3.051
3.20851
3.34827
3.48658
3.6323
3.79037
3.96225
4.14473
4.3271
4.48671
4.58245
4.54636
4.27454
3.61922
2.3848
0.331494
-2.81221
-7.33015
-13.5008
-21.5967
-31.903
-45.0017
-61.2089
-80.0429
-101.312
-125.232
-152.394
-183.333
-218.095
-256.027
-295.847
-335.96
-374.83
-411.267
-444.566
-474.352
-500.447
-522.918
-542.115
-558.503
-572.559
-584.731
-595.432
-605.01
-613.809
-622.845
2.79514
2.9012
3.07643
3.235
3.3763
3.51662
3.6649
3.82617
4.00207
4.18953
4.37804
4.54509
4.64962
4.62365
4.36319
3.72045
2.50065
0.466828
-2.64541
-7.10564
-13.1676
-21.0643
-31.0209
-43.5216
-58.6905
-75.8899
-95.0651
-116.464
-140.808
-168.853
-200.927
-236.654
-274.945
-314.273
-353.044
-389.92
-424.044
-454.944
-482.31
-506.079
-526.519
-544.065
-559.185
-572.334
-583.937
-594.356
-603.952
-613.804
2.8243
2.92833
3.10205
3.26164
3.40451
3.54686
3.69772
3.86225
4.04222
4.23477
4.42956
4.60427
4.71799
4.70286
4.45501
3.8271
2.62578
0.617927
-2.45251
-6.8394
-12.7703
-20.438
-30.0073
-41.8647
-55.9472
-71.4711
-88.5069
-107.319
-128.733
-153.705
-182.839
-216.046
-252.47
-290.685
-329.072
-366.168
-400.963
-432.861
-461.435
-486.497
-508.212
-526.963
-543.204
-557.392
-569.961
-581.286
-591.739
-602.47
2.85388
2.95579
3.12785
3.28846
3.4329
3.57731
3.73079
3.89862
4.08273
4.28046
4.48168
4.66429
4.78763
4.78408
4.55016
3.93941
2.7606
0.785353
-2.23279
-6.53073
-12.3087
-19.7185
-28.8649
-40.038
-52.9936
-66.8126
-81.6782
-97.8542
-116.246
-137.987
-163.939
-194.314
-228.511
-265.254
-302.936
-340.002
-375.27
-408.009
-437.696
-464.031
-487.041
-507.043
-524.464
-539.756
-553.358
-565.658
-577.037
-588.717
2.88391
2.98361
3.15385
3.31546
3.46147
3.60796
3.7641
3.93529
4.12362
4.32662
4.53442
4.7252
4.85859
4.86739
4.64878
4.05761
2.90543
0.969583
-1.98572
-6.17919
-11.7828
-18.9072
-27.5977
-38.0499
-49.8461
-61.9427
-74.6224
-88.1327
-103.435
-121.809
-144.357
-171.591
-203.194
-238.08
-274.701
-311.438
-346.943
-380.326
-411.006
-438.567
-462.88
-484.172
-502.829
-519.29
-533.996
-547.342
-559.72
-572.426
2.91438
3.01179
3.18007
3.34264
3.49025
3.63885
3.79769
3.97227
4.16489
4.37328
4.58783
4.78703
4.93092
4.95287
4.75099
4.18189
3.06057
1.17094
-1.71101
-5.78479
-11.1935
-18.0065
-26.2109
-35.9106
-46.523
-56.8913
-67.384
-78.2184
-90.3872
-105.285
-124.233
-148.034
-176.674
-209.299
-244.465
-280.527
-315.991
-349.811
-381.329
-410.023
-435.618
-458.221
-478.161
-495.852
-511.731
-526.199
-539.65
-553.463
2.94532
3.04035
3.2065
3.37003
3.51924
3.66997
3.83155
4.0096
4.20658
4.42046
4.64192
4.84981
5.00468
5.0406
4.85692
4.31243
3.22622
1.38966
-1.40857
-5.34791
-10.5421
-17.0197
-24.7109
-33.6313
-43.0433
-51.6881
-60.0066
-68.1731
-77.1886
-88.5331
-103.713
-123.81
-149.125
-179.072
-212.361
-247.363
-282.483
-316.507
-348.653
-378.331
-405.148
-429.059
-450.315
-469.288
-486.405
-502.068
-516.668
-531.673
2.97673
3.0693
3.23317
3.39762
3.54846
3.70135
3.86571
4.04728
4.2487
4.46819
4.69673
4.9136
5.07992
5.13067
4.96667
4.44937
3.40254
1.62582
-1.07854
-4.86924
-9.83046
-15.9505
-23.1048
-31.224
-39.4264
-46.3623
-52.532
-58.0564
-63.9229
-71.6655
-82.9433
-99.0949
-120.739
-147.59
-178.558
-212.082
-246.514
-280.455
-312.968
-343.438
-371.374
-396.561
-419.142
-439.438
-457.849
-474.776
-490.601
-506.88
3.00864
3.09866
3.26008
3.42544
3.57791
3.733
3.90018
4.08534
4.29128
4.51649
4.7523
4.97844
5.15672
5.22315
5.08036
4.59282
3.58965
1.87944
-0.721237
-4.3498
-9.06086
-14.8033
-21.4001
-28.7012
-35.6919
-40.9424
-45
-47.9241
-50.6689
-54.7924
-62.0711
-74.0716
-91.7241
-115.064
-143.253
-174.846
-208.18
-241.717
-274.349
-305.378
-334.249
-360.625
-384.508
-406.141
-425.888
-444.139
-461.258
-478.896
3.04104
3.12845
3.28726
3.45349
3.60761
3.76493
3.93499
4.12379
4.33435
4.56541
4.80867
5.04439
5.23512
5.31814
5.19808
4.74289
3.78759
2.15039
-0.337148
-3.79083
-8.23594
-13.5831
-19.6051
-26.0757
-31.8587
-35.4551
-37.4474
-37.8275
-37.4996
-38.0172
-41.2377
-48.9222