/*--------------------------------*- C++ -*----------------------------------*\
  =========                 |
  \\      /  F ield         | OpenFOAM: The Open Source CFD Toolbox
   \\    /   O peration     | Website:  https://openfoam.org
    \\  /    A nd           | Version:  10
     \\/     M anipulation  |
\*---------------------------------------------------------------------------*/
FoamFile
{
    format      ascii;
    class       surfaceScalarField;
    location    "5";
    object      phi;
}
// * * * * * * * * * * * * * * * * * * * * * * * * * * * * * * * * * * * * * //

dimensions      [0 3 -1 0 0 0 0];

internalField   nonuniform List<scalar> 
75600
(
0.00982307
-1236.72
1236.72
0.00560013
-1023.9
1023.9
0.00205963
-847.732
847.735
-0.000887319
-701.904
701.907
-0.0033354
-581.198
581.201
-0.00536487
-481.295
481.297
-0.00704793
-398.618
398.619
-0.00844464
-330.208
330.209
-0.00959971
-273.617
273.618
-0.0105562
-226.818
226.819
-0.0113474
-188.137
188.138
-0.0120008
-156.19
156.19
-0.0125399
-129.831
129.832
-0.012984
-108.118
108.119
-0.0133485
-90.2741
90.2744
-0.0136467
-75.6595
75.6598
-0.0138892
-63.7514
63.7517
-0.0140844
-54.1237
54.1239
-0.0142385
-46.4318
46.4319
-0.014355
-40.4002
40.4004
-0.0144356
-35.813
35.8131
-0.0144766
-32.5053
32.5054
-0.0144714
-30.3574
30.3574
-0.0143977
-29.2899
29.2899
-0.014231
-29.1545
29.1543
-0.0140004
-23.229
23.2288
-0.0137197
-18.4984
18.4981
-0.0134097
-14.7246
14.7242
-0.0130836
-11.7165
11.7162
-0.0127473
-9.32093
9.3206
-0.0124007
-7.41463
7.41428
-0.0120415
-5.89857
5.89821
-0.0116677
-4.69338
4.69301
-0.0112792
-3.73562
3.73523
-0.0108783
-2.9747
2.9743
-0.0104696
-2.37034
2.36993
-0.0100597
-1.89055
1.89014
-0.00965547
-1.50993
1.50952
-0.00926404
-1.20835
1.20795
-0.00889155
-0.96988
0.969507
-0.00854295
-0.781965
0.781617
-0.00822146
-0.634715
0.634394
-0.00792794
-0.520391
0.520097
-0.00766154
-0.432991
0.432724
-0.00742038
-0.36793
0.367689
-0.00719402
-0.321797
0.321571
-0.00697844
-0.29212
0.291905
-0.277051
0.276915
-0.00684267
0.0347632
-1236.7
0.0258918
-1023.89
0.0184945
-847.724
0.0123514
-701.898
0.00725211
-581.193
0.00302422
-481.29
-0.000482129
-398.614
-0.00338557
-330.205
-0.00579382
-273.614
-0.00778887
-226.816
-0.00944185
-188.136
-0.0108117
-156.188
-0.0119469
-129.83
-0.0128877
-108.117
-0.013668
-90.2733
-0.0143155
-75.6588
-0.0148529
-63.7509
-0.0152996
-54.1233
-0.0156696
-46.4314
-0.0159742
-40.3999
-0.0162201
-35.8128
-0.0164083
-32.5051
-0.0165322
-30.3573
-0.0165737
-29.2899
-0.0164902
-29.1546
-0.0162779
-23.2292
-0.0159612
-18.4987
-0.0155689
-14.7249
-0.0151231
-11.7169
-0.014637
-9.32142
-0.0141162
-7.41515
-0.0135622
-5.89912
-0.0129767
-4.69397
-0.0123632
-3.73624
-0.0117284
-2.97533
-0.0110821
-2.37099
-0.0104358
-1.8912
-0.00980213
-1.51056
-0.00919303
-1.20895
-0.00861863
-0.970454
-0.00808682
-0.782497
-0.00760241
-0.6352
-0.00716651
-0.520826
-0.00677675
-0.43338
-0.00642768
-0.368279
-0.00610437
-0.32212
-0.00579082
-0.292434
-0.277367
-0.00547491
0.0592407
-1236.69
0.0452119
-1023.88
0.0335444
-847.713
0.0238634
-701.888
0.0158388
-581.185
0.00918516
-481.284
0.00367222
-398.609
-0.000899284
-330.2
-0.00468569
-273.61
-0.00782556
-226.813
-0.0104293
-188.133
-0.0125895
-156.186
-0.0143832
-129.828
-0.0158741
-108.116
-0.0171155
-90.2721
-0.0181517
-75.6578
-0.0190195
-63.75
-0.0197489
-54.1225
-0.0203646
-46.4308
-0.0208854
-40.3994
-0.021324
-35.8123
-0.0216864
-32.5048
-0.0219666
-30.357
-0.0221422
-29.2897
-0.0221553
-29.1546
-0.0219599
-23.2294
-0.0215871
-18.4991
-0.021076
-14.7255
-0.0204599
-11.7176
-0.019762
-9.32212
-0.018996
-7.41592
-0.0181701
-5.89995
-0.0172917
-4.69485
-0.0163703
-3.73716
-0.0154197
-2.97628
-0.0144569
-2.37195
-0.0135015
-1.89215
-0.0125734
-1.51149
-0.011691
-1.20984
-0.0108691
-0.971276
-0.0101188
-0.783248
-0.00944599
-0.635872
-0.00885089
-0.521422
-0.00832773
-0.433904
-0.00786407
-0.368743
-0.00743918
-0.322545
-0.00703108
-0.292842
-0.277858
-0.00654013
0.0838862
-1236.66
0.0646256
-1023.86
0.048638
-847.697
0.0353885
-701.875
0.0244091
-581.174
0.0153152
-481.275
0.00777953
-398.601
0.0015385
-330.194
-0.00363662
-273.605
-0.0079263
-226.809
-0.011485
-188.13
-0.0144396
-156.183
-0.0168959
-129.826
-0.0189415
-108.114
-0.0206496
-90.2704
-0.0220812
-75.6564
-0.023287
-63.7488
-0.0243092
-54.1215
-0.0251826
-46.4299
-0.0259339
-40.3987
-0.0265833
-35.8117
-0.0271409
-32.5042
-0.0276031
-30.3565
-0.0279427
-29.2894
-0.0280842
-29.1544
-0.0279244
-23.2296
-0.0275033
-18.4995
-0.026872
-14.7261
-0.0260769
-11.7184
-0.0251537
-9.32304
-0.0241263
-7.41694
-0.0230111
-5.90106
-0.021823
-4.69603
-0.0205795
-3.7384
-0.0193022
-2.97756
-0.0180169
-2.37324
-0.0167517
-1.89342
-0.015534
-1.51271
-0.014388
-1.21098
-0.0133329
-0.972331
-0.0123814
-0.784199
-0.0115391
-0.636715
-0.0108033
-0.522157
-0.010163
-0.434544
-0.00959842
-0.369308
-0.00908414
-0.323059
-0.00858623
-0.29334
-0.278443
-0.00800076
0.108978
-1236.64
0.0845534
-1023.83
0.064306
-847.676
0.0475437
-701.858
0.0336669
-581.16
0.022178
-481.263
0.0126651
-398.591
0.00478539
-330.186
-0.00174295
-273.599
-0.00715527
-226.803
-0.0116462
-188.125
-0.0153768
-156.179
-0.0184809
-129.823
-0.0210701
-108.111
-0.0232369
-90.2682
-0.0250594
-75.6545
-0.0266017
-63.7473
-0.0279185
-54.1202
-0.0290539
-46.4288
-0.0300442
-40.3977
-0.0309166
-35.8108
-0.0316861
-32.5034
-0.0323515
-30.3559
-0.0328819
-29.2889
-0.0331848
-29.1541
-0.0330859
-23.2297
-0.0326354
-18.5
-0.0318984
-14.7268
-0.030936
-11.7193
-0.0297978
-9.32418
-0.0285191
-7.41822
-0.0271259
-5.90246
-0.0256418
-4.69752
-0.0240926
-3.73995
-0.0225088
-2.97914
-0.0209249
-2.37482
-0.0193769
-1.89496
-0.0178991
-1.51418
-0.0165206
-1.21236
-0.015263
-0.973589
-0.0141391
-0.785323
-0.0131522
-0.637702
-0.0122953
-0.523014
-0.0115515
-0.435288
-0.0108954
-0.369964
-0.0102973
-0.323658
-0.00971487
-0.293922
-0.279081
-0.00907721
0.134674
-1236.6
0.105183
-1023.8
0.0807726
-847.652
0.0605811
-701.838
0.0438816
-581.143
0.0300654
-481.249
0.0186339
-398.58
0.00916972
-330.177
0.00133
-273.591
-0.00516841
-226.797
-0.0105608
-188.12
-0.0150419
-156.175
-0.0187736
-129.819
-0.0218904
-108.108
-0.0245045
-90.2656
-0.0267096
-75.6523
-0.0285846
-63.7454
-0.0301952
-54.1186
-0.0315964
-46.4274
-0.0328332
-40.3964
-0.0339396
-35.8097
-0.0349372
-32.5024
-0.0358268
-30.355
-0.0365741
-29.2881
-0.0370692
-29.1536
-0.0370519
-23.2297
-0.0365841
-18.5004
-0.0357468
-14.7277
-0.0346176
-11.7204
-0.0332615
-9.32553
-0.0317271
-7.41976
-0.0300515
-5.90413
-0.0282682
-4.6993
-0.0264129
-3.74181
-0.0245256
-2.98103
-0.02265
-2.37669
-0.0208303
-1.89678
-0.019107
-1.51591
-0.017513
-1.21396
-0.0160712
-0.975031
-0.0147932
-0.786601
-0.0136784
-0.638816
-0.0127143
-0.523978
-0.0118782
-0.436124
-0.0111398
-0.370702
-0.0104657
-0.324332
-0.00981008
-0.294578
-0.279772
-0.00911877
0.160889
-1236.56
0.126267
-1023.77
0.0976479
-847.623
0.0740053
-701.814
0.0544685
-581.124
0.0383219
-481.233
0.024969
-398.567
0.0139219
-330.166
0.00477501
-273.582
-0.00280536
-226.789
-0.00909558
-188.113
-0.0143247
-156.17
-0.0186828
-129.815
-0.0223274
-108.105
-0.0253906
-90.2625
-0.0279828
-75.6497
-0.0301969
-63.7432
-0.0321108
-54.1167
-0.03379
-46.4257
-0.0352888
-40.3949
-0.0366495
-35.8083
-0.0378995
-32.5012
-0.0390425
-30.3539
-0.0400409
-29.2871
-0.0407653
-29.1529
-0.04085
-23.2296
-0.0403715
-18.5009
-0.0394286
-14.7286
-0.0381185
-11.7218
-0.0365246
-9.32713
-0.0347113
-7.42157
-0.0327293
-5.90611
-0.030624
-4.70141
-0.0284429
-3.74399
-0.026237
-2.98324
-0.0240603
-2.37887
-0.0219652
-1.89888
-0.0199983
-1.51787
-0.0181953
-1.21576
-0.0165789
-0.976647
-0.0151576
-0.788022
-0.0139254
-0.640049
-0.0128637
-0.52504
-0.0119437
-0.437044
-0.0111305
-0.371515
-0.0103871
-0.325075
-0.00966763
-0.295298
-0.280523
-0.00891704
0.18768
-1236.51
0.147823
-1023.73
0.114925
-847.591
0.0877796
-701.787
0.0653762
-581.102
0.0468759
-481.215
0.0315912
-398.551
0.0189553
-330.153
0.00849897
-273.571
-0.000164379
-226.781
-0.00735311
-188.106
-0.013331
-156.164
-0.0183166
-129.81
-0.0224921
-108.1
-0.0260092
-90.259
-0.0289953
-75.6468
-0.0315577
-63.7406
-0.0337874
-54.1145
-0.0357609
-46.4237
-0.0375422
-40.3932
-0.0391822
-35.8067
-0.0407147
-32.4997
-0.0421476
-30.3524
-0.0434387
-29.2858
-0.0444369
-29.1519
-0.0446484
-23.2294
-0.0441661
-18.5014
-0.0431103
-14.7297
-0.0416012
-11.7233
-0.039744
-9.32899
-0.0376225
-7.42369
-0.0353037
-5.90843
-0.0328482
-4.70386
-0.030317
-3.74652
-0.0277741
-2.98578
-0.0252846
-2.38136
-0.0229097
-1.90125
-0.0207008
-1.52008
-0.0186955
-1.21776
-0.0169143
-0.978428
-0.0153607
-0.789576
-0.0140218
-0.641387
-0.0128719
-0.52619
-0.0118764
-0.438039
-0.0109962
-0.372395
-0.0101914
-0.32588
-0.00941638
-0.296073
-0.281328
-0.00861095
0.215148
-1236.45
0.169934
-1023.68
0.132667
-847.553
0.101964
-701.756
0.076656
-581.076
0.0557829
-481.194
0.0385562
-398.534
0.0243242
-330.139
0.0125562
-273.559
0.0028098
-226.771
-0.00527698
-188.098
-0.0120035
-156.157
-0.0176181
-129.804
-0.022327
-108.096
-0.0263028
-90.255
-0.0296903
-75.6434
-0.0326123
-63.7377
-0.0351721
-54.1119
-0.0374584
-46.4214
-0.0395457
-40.3911
-0.0414941
-35.8047
-0.0433454
-32.4978
-0.0451105
-30.3507
-0.0467436
-29.2842
-0.0480694
-29.1506
-0.0484384
-23.229
-0.047963
-18.5019
-0.0467887
-14.7308
-0.0450628
-11.725
-0.0429169
-9.33113
-0.0404578
-7.42615
-0.0377728
-5.91112
-0.0349402
-4.70669
-0.0320374
-3.74942
-0.0291429
-2.98868
-0.0263338
-2.38417
-0.0236795
-1.90391
-0.0212355
-1.52253
-0.0190389
-1.21996
-0.0171059
-0.980361
-0.0154329
-0.791249
-0.0139989
-0.642821
-0.0127711
-0.527418
-0.0117094
-0.439101
-0.0107711
-0.373334
-0.00991419
-0.326737
-0.00909371
-0.296893
-0.282177
-0.00824549
0.243396
-1236.39
0.192689
-1023.63
0.150968
-847.512
0.116645
-701.722
0.0883959
-581.048
0.0651294
-481.171
0.0459491
-398.515
0.0301209
-330.123
0.0170399
-273.546
0.00621288
-226.76
-0.00276883
-188.089
-0.0102418
-156.15
-0.0164846
-129.798
-0.021729
-108.09
-0.0261683
-90.2506
-0.0299653
-75.6396
-0.033258
-63.7344
-0.0361642
-54.109
-0.0387845
-46.4188
-0.0412049
-40.3886
-0.0434956
-35.8025
-0.0457067
-32.4956
-0.0478539
-30.3485
-0.0498869
-29.2821
-0.0516038
-29.1489
-0.0521677
-23.2285
-0.0517143
-18.5023
-0.0504185
-14.7321
-0.0484596
-11.7269
-0.0460005
-9.33359
-0.0431759
-7.42897
-0.0400971
-5.9142
-0.0368639
-4.70993
-0.0335724
-3.75271
-0.0303172
-2.99193
-0.0271876
-2.3873
-0.0242605
-1.90684
-0.0215935
-1.52519
-0.0192208
-1.22233
-0.0171518
-0.98243
-0.015374
-0.793027
-0.0138578
-0.644338
-0.0125633
-0.528712
-0.0114461
-0.440218
-0.0104606
-0.374319
-0.00956323
-0.327634
-0.00871011
-0.297746
-0.283052
-0.0078351
0.272529
-1236.32
0.216185
-1023.58
0.169904
-847.465
0.131899
-701.684
0.100672
-581.017
0.0749917
-481.145
0.0538503
-398.494
0.0364232
-330.106
0.0220357
-273.532
0.0101334
-226.748
0.000261909
-188.079
-0.00795375
-156.141
-0.0148231
-129.791
-0.0206035
-108.085
-0.0255104
-90.2457
-0.0297249
-75.6354
-0.0334013
-63.7307
-0.0366717
-54.1057
-0.0396501
-46.4158
-0.0424346
-40.3859
-0.0451065
-35.7998
-0.0477252
-32.493
-0.0503119
-30.3459
-0.0528125
-29.2796
-0.0549952
-29.1467
-0.0557992
-23.2277
-0.055388
-18.5027
-0.053971
-14.7336
-0.0517651
-11.7292
-0.0489701
-9.33639
-0.045754
-7.43219
-0.0422569
-5.91769
-0.0386034
-4.71358
-0.0349112
-3.7564
-0.0312921
-2.99555
-0.0278473
-2.39074
-0.0246598
-1.91002
-0.0217867
-1.52807
-0.0192563
-1.22486
-0.017069
-0.984618
-0.0152021
-0.794894
-0.0136173
-0.645922
-0.0122686
-0.530061
-0.011108
-0.441379
-0.010088
-0.375339
-0.00916347
-0.328559
-0.00829191
-0.298618
-0.283937
-0.00740659
0.302659
-1236.25
0.240511
-1023.51
0.189565
-847.414
0.147811
-701.642
0.113566
-580.982
0.0854532
-481.117
0.0623465
-398.471
0.0433247
-330.087
0.0276367
-273.516
0.0146681
-226.735
0.00391492
-188.069
-0.00503637
-156.132
-0.0125282
-129.783
-0.0188445
-108.078
-0.0242226
-90.2403
-0.0288633
-75.6307
-0.0329374
-63.7267
-0.0365921
-54.1021
-0.0399558
-46.4125
-0.0431394
-40.3827
-0.0462369
-35.7967
-0.0493182
-32.4899
-0.052411
-30.3428
-0.055457
-29.2766
-0.058193
-29.144
-0.0592915
-23.2266
-0.0589487
-18.5031
-0.0574147
-14.7351
-0.0549507
-11.7316
-0.0517998
-9.33954
-0.0481693
-7.43582
-0.0442331
-5.92163
-0.040145
-4.71767
-0.0360461
-3.7605
-0.0320663
-2.99953
-0.0283182
-2.39449
-0.024888
-1.91345
-0.0218293
-1.53113
-0.0191619
-1.22753
-0.016875
-0.986904
-0.0149352
-0.796834
-0.0132964
-0.647561
-0.0119071
-0.53145
-0.0107166
-0.442569
-0.00967564
-0.37638
-0.00873761
-0.329497
-0.00786137
-0.299494
-0.284818
-0.00698037
0.333894
-1236.17
0.265769
-1023.45
0.210043
-847.359
0.164468
-701.597
0.127167
-580.945
0.0966078
-481.086
0.0715328
-398.446
0.0509238
-330.066
0.0339467
-273.499
0.0199245
-226.721
0.00830218
-188.057
-0.00137543
-156.123
-0.00948337
-129.775
-0.0163335
-108.071
-0.022186
-90.2344
-0.0272614
-75.6256
-0.0317482
-63.7222
-0.0358097
-54.098
-0.0395891
-46.4087
-0.0432119
-40.3791
-0.0467855
-35.7931
-0.050392
-32.4863
-0.0540671
-30.3392
-0.0577488
-29.2729
-0.0611395
-29.1406
-0.062597
-23.2251
-0.0623561
-18.5033
-0.0607145
-14.7367
-0.0579851
-11.7343
-0.054462
-9.34306
-0.0503983
-7.43989
-0.0460077
-5.92602
-0.0414763
-4.7222
-0.0369716
-3.76501
-0.0326416
-3.00386
-0.0286078
-2.39853
-0.0249573
-1.9171
-0.0217368
-1.53435
-0.0189545
-1.23031
-0.0165872
-0.989272
-0.0145915
-0.798829
-0.0129138
-0.649239
-0.0114984
-0.532866
-0.0102919
-0.443776
-0.00924325
-0.377429
-0.00830454
-0.330435
-0.00743556
-0.300363
-0.285683
-0.00657048
0.366356
-1236.07
0.292068
-1023.37
0.231435
-847.298
0.181965
-701.547
0.141576
-580.905
0.108555
-481.053
0.0815192
-398.419
0.0593332
-330.044
0.0410856
-273.481
0.0260281
-226.706
0.013553
-188.044
0.00316275
-156.112
-0.00555235
-129.767
-0.012932
-108.064
-0.019261
-90.2281
-0.0247799
-75.6201
-0.0296954
-63.7173
-0.0341883
-54.0935
-0.0384175
-46.4045
-0.0425245
-40.375
-0.0466317
-35.789
-0.0508351
-32.4821
-0.0551792
-30.3348
-0.0595998
-29.2685
-0.0637626
-29.1364
-0.0656551
-23.2232
-0.065558
-18.5034
-0.0638245
-14.7385
-0.0608277
-11.7373
-0.056921
-9.34697
-0.0524109
-7.4444
-0.0475566
-5.93087
-0.0425809
-4.72718
-0.0376788
-3.76991
-0.0330156
-3.00852
-0.0287198
-2.40282
-0.0248753
-1.92095
-0.0215185
-1.5377
-0.0186441
-1.23319
-0.0162164
-0.991699
-0.0141821
-0.800864
-0.0124813
-0.65094
-0.0110545
-0.534292
-0.00984541
-0.444985
-0.00880137
-0.378473
-0.00787299
-0.331364
-0.00702084
-0.301215
-0.286524
-0.00618014
0.400169
-1235.98
0.319515
-1023.29
0.253852
-847.232
0.200418
-701.494
0.156903
-580.861
0.121418
-481.018
0.0924272
-398.39
0.0686892
-330.02
0.0491941
-273.462
0.0331256
-226.69
0.0198203
-188.031
0.00873591
-156.101
-0.000573475
-129.757
-0.00847648
-108.056
-0.0152821
-90.2213
-0.0212528
-75.6141
-0.0266147
-63.7119
-0.0315658
-54.0886
-0.0362829
-46.3998
-0.0409245
-40.3703
-0.04563
-35.7843
-0.0505107
-32.4772
-0.0556228
-30.3297
-0.0609002
-29.2632
-0.0659699
-29.1313
-0.0683864
-23.2208
-0.0684847
-18.5033
-0.0666827
-14.7403
-0.063423
-11.7406
-0.0591277
-9.35126
-0.0541649
-7.44936
-0.0488453
-5.93619
-0.0434321
-4.73259
-0.0381488
-3.77519
-0.0331764
-3.01349
-0.0286471
-2.40735
-0.0246378
-1.92496
-0.0211716
-1.54117
-0.0182286
-1.23613
-0.0157605
-0.994167
-0.0137053
-0.802919
-0.0119973
-0.652648
-0.0105732
-0.535717
-0.00937392
-0.446184
-0.00834505
-0.379502
-0.00743589
-0.332273
-0.00660765
-0.302043
-0.287334
-0.00579702
0.435453
-1235.87
0.348217
-1023.2
0.277383
-847.161
0.219906
-701.436
0.173232
-580.815
0.135279
-480.98
0.104354
-398.359
0.0790857
-329.995
0.0583733
-273.441
0.0413242
-226.673
0.0272155
-188.017
0.0154588
-156.089
0.00557141
-129.747
-0.00284609
-108.048
-0.0101285
-90.214
-0.0165598
-75.6077
-0.0223864
-63.7061
-0.0278259
-54.0831
-0.0330735
-46.3945
-0.0383065
-40.3651
-0.0436833
-35.7789
-0.049333
-32.4715
-0.0553249
-30.3237
-0.061593
-29.257
-0.0677241
-29.1252
-0.0707688
-23.2177
-0.0711254
-18.503
-0.0692874
-14.7421
-0.0657776
-11.7441
-0.0610966
-9.35594
-0.0556831
-7.45477
-0.0499052
-5.94197
-0.0440701
-4.73842
-0.0384296
-3.78083
-0.0331782
-3.01875
-0.0284478
-2.41208
-0.0243046
-1.9291
-0.0207561
-1.54472
-0.0177673
-1.23912
-0.0152782
-0.996657
-0.0132186
-0.804978
-0.0115176
-0.654349
-0.010108
-0.537126
-0.00892807
-0.447364
-0.00792179
-0.380508
-0.00703751
-0.333157
-0.00623712
-0.302844
-0.288112
-0.00545904
0.472345
-1235.75
0.378294
-1023.11
0.302146
-847.085
0.24055
-701.375
0.190695
-580.765
0.150279
-480.939
0.117439
-398.326
0.0906794
-329.968
0.0687887
-273.419
0.0507971
-226.655
0.0359196
-188.002
0.0235189
-156.077
0.0130741
-129.737
0.00415374
-108.039
-0.00360252
-90.2063
-0.0105028
-75.6008
-0.0168142
-63.6998
-0.0227746
-54.0772
-0.0285997
-46.3887
-0.0344876
-40.3592
-0.0406172
-35.7728
-0.0471385
-32.465
-0.0541363
-30.3167
-0.0615473
-29.2495
-0.0689157
-29.1178
-0.0727089
-23.214
-0.0734001
-18.5023
-0.0715694
-14.7439
-0.0678319
-11.7479
-0.0627778
-9.361
-0.0569252
-7.46062
-0.0507061
-5.94819
-0.0444738
-4.74466
-0.0385079
-3.7868
-0.0330133
-3.02424
-0.0281171
-2.41698
-0.0238721
-1.93335
-0.0202687
-1.54832
-0.0172568
-1.24213
-0.0147656
-0.999148
-0.0127175
-0.807027
-0.0110364
-0.65603
-0.00965142
-0.538511
-0.00849848
-0.448517
-0.00752026
-0.381486
-0.00666455
-0.334013
-0.00589405
-0.303614
-0.288857
-0.00514915
0.510986
-1235.63
0.409873
-1023.01
0.328264
-847.004
0.262476
-701.309
0.209415
-580.712
0.166549
-480.896
0.131832
-398.291
0.103623
-329.94
0.0806025
-273.396
0.0617155
-226.636
0.0461111
-187.987
0.0331013
-156.064
0.0221243
-129.726
0.012717
-108.029
0.00449063
-90.198
-0.00288617
-75.5934
-0.0097037
-63.6929
-0.016221
-54.0706
-0.0226756
-46.3822
-0.0292884
-40.3526
-0.0362623
-35.7658
-0.04377
-32.4575
-0.0519156
-30.3086
-0.06064
-29.2408
-0.0694458
-29.109
-0.0741268
-23.2093
-0.0752436
-18.5012
-0.0734766
-14.7457
-0.0695456
-11.7518
-0.0641424
-9.3664
-0.0578735
-7.46689
-0.0512408
-5.95482
-0.0446455
-4.75125
-0.0383935
-3.79305
-0.0326958
-3.02994
-0.0276717
-2.422
-0.0233574
-1.93766
-0.0197258
-1.55195
-0.0167129
-1.24514
-0.0142375
-1.00162
-0.0122151
-0.809049
-0.0105648
-0.65768
-0.00921234
-0.539864
-0.00809178
-0.449638
-0.00714494
-0.382433
-0.00631958
-0.334838
-0.0055793
-0.304355
-0.28957
-0.00486676
0.551518
-1235.49
0.443091
-1022.9
0.355867
-846.916
0.285812
-701.239
0.229527
-580.655
0.184233
-480.851
0.147684
-398.255
0.118082
-329.91
0.0939907
-273.372
0.0742647
-226.616
0.0579837
-187.97
0.0444059
-156.05
0.0329283
-129.714
0.023053
-108.02
0.0143634
-90.1894
0.00650217
-75.5856
-0.000843295
-63.6856
-0.00795625
-54.0635
-0.0150977
-46.3751
-0.0225137
-40.3452
-0.0304333
-35.7579
-0.0390558
-32.4489
-0.0485075
-30.2991
-0.0587376
-29.2306
-0.0692066
-29.0986
-0.0749353
-23.2035
-0.076586
-18.4995
-0.0749536
-14.7473
-0.0708771
-11.7559
-0.0651618
-9.37212
-0.0585121
-7.47354
-0.0515049
-5.96183
-0.0445903
-4.75817
-0.0380979
-3.79954
-0.0322414
-3.03579
-0.0271281
-2.42712
-0.0227769
-1.94201
-0.0191434
-1.55559
-0.0161501
-1.24814
-0.0137068
-1.00407
-0.0117224
-0.811033
-0.0101115
-0.659291
-0.00879727
-0.541178
-0.00771239
-0.450722
-0.00679846
-0.383347
-0.00600364
-0.335633
-0.00529263
-0.305066
-0.290252
-0.00461053
0.594101
-1235.35
0.478083
-1022.79
0.385082
-846.823
0.310691
-701.165
0.251178
-580.596
0.203486
-480.803
0.165159
-398.216
0.134233
-329.879
0.109142
-273.347
0.0886441
-226.596
0.0717457
-187.953
0.0576495
-156.036
0.0457079
-129.702
0.0353884
-108.009
0.0262443
-90.1802
0.0178927
-75.5772
0.00999503
-63.6777
0.00224418
-54.0558
-0.00564732
-46.3672
-0.0139524
-40.3369
-0.0229303
-35.7489
-0.0328097
-32.439
-0.043744
-30.2882
-0.0556948
-29.2186
-0.0680812
-29.0862
-0.0750404
-23.1966
-0.0773523
-18.4972
-0.0759427
-14.7487
-0.0717844
-11.76
-0.0658089
-9.37809
-0.0588277
-7.48052
-0.051497
-5.96916
-0.044316
-4.76535
-0.037635
-3.80622
-0.0316663
-3.04176
-0.0265034
-2.43228
-0.0221471
-1.94637
-0.0185367
-1.5592
-0.0155823
-1.25109
-0.0131853
-1.00646
-0.0112487
-0.81297
-0.00968369
-0.660856
-0.00841131
-0.54245
-0.0073636
-0.45177
-0.00648256
-0.384228
-0.00571723
-0.336399
-0.00503351
-0.305749
-0.290906
-0.00437915
0.638895
-1235.19
0.514998
-1022.66
0.41606
-846.725
0.337264
-701.086
0.274517
-580.533
0.224474
-480.753
0.184439
-398.176
0.152266
-329.847
0.126259
-273.321
0.105067
-226.575
0.0876208
-187.936
0.0730633
-156.022
0.0607014
-129.69
0.0499659
-107.999
0.0403791
-90.1706
0.0315307
-75.5684
0.0230561
-63.6692
0.0146215
-54.0473
0.00591152
-46.3585
-0.00337785
-40.3276
-0.0135378
-35.7388
-0.024832
-32.4277
-0.0374447
-30.2756
-0.0513548
-29.2047
-0.0659439
-29.0716
-0.0743414
-23.1882
-0.0774635
-18.4941
-0.0763842
-14.7498
-0.0722257
-11.7642
-0.0660585
-9.38426
-0.0588099
-7.48777
-0.0512188
-5.97675
-0.043833
-4.77273
-0.0370201
-3.81304
-0.030988
-3.0478
-0.0258149
-2.43745
-0.0214844
-1.9507
-0.0179205
-1.56276
-0.0150223
-1.25399
-0.0126835
-1.0088
-0.0108024
-0.814851
-0.00928742
-0.662371
-0.00805858
-0.543679
-0.00704802
-0.452781
-0.00619863
-0.385077
-0.00546074
-0.337136
-0.00480161
-0.306408
-0.291536
-0.00417169
0.686068
-1235.03
0.553993
-1022.53
0.448946
-846.619
0.36568
-701.002
0.299711
-580.467
0.247367
-480.701
0.205706
-398.135
0.172385
-329.814
0.145555
-273.294
0.12376
-226.553
0.105846
-187.918
0.0908931
-156.007
0.0781612
-129.677
0.0670427
-107.987
0.0570281
-90.1606
0.0476778
-75.559
0.0385998
-63.6601
0.029432
-54.0382
0.019828
-46.3489
0.00945112
-40.3172
-0.00202743
-35.7273
-0.0149099
-32.4148
-0.0294171
-30.2611
-0.0455517
-29.1886
-0.0626612
-29.0545
-0.0727324
-23.1781
-0.0768373
-18.49
-0.0762172
-14.7504
-0.0721602
-11.7682
-0.0658881
-9.39053
-0.0584515
-7.49521
-0.0506755
-5.98453
-0.0431544
-4.78025
-0.0362704
-3.81992
-0.0302246
-3.05384
-0.0250803
-2.4426
-0.0208051
-1.95497
-0.0173092
-1.56626
-0.0144821
-1.25682
-0.012211
-1.01107
-0.0103908
-0.816671
-0.00892798
-0.663834
-0.00774274
-0.544864
-0.00676798
-0.453755
-0.00594795
-0.385897
-0.00523465
-0.33785
-0.00459674
-0.307046
-0.292145
-0.00398751
0.735805
-1234.85
0.59523
-1022.39
0.483904
-846.508
0.396103
-700.915
0.326926
-580.398
0.272355
-480.646
0.229161
-398.091
0.194799
-329.779
0.167257
-273.266
0.144961
-226.531
0.12667
-187.9
0.111397
-155.992
0.0983533
-129.664
0.0868902
-107.976
0.0764652
-90.1502
0.0666089
-75.5492
0.0568999
-63.6504
0.0469453
-54.0282
0.0363665
-46.3383
0.0247886
-40.3056
0.0118426
-35.7143
-0.00281866
-32.4002
-0.0194582
-30.2444
-0.0381095
-29.1699
-0.0580925
-29.0345
-0.0701024
-23.1661
-0.075389
-18.4847
-0.0753809
-14.7504
-0.0715488
-11.7721
-0.0652778
-9.3968
-0.057749
-7.50274
-0.0498751
-5.9924
-0.0422955
-4.78783
-0.0354043
-3.82681
-0.0293953
-3.05985
-0.0243176
-2.44767
-0.0201254
-1.95917
-0.0167168
-1.56967
-0.0139732
-1.25956
-0.011777
-1.01327
-0.0100206
-0.818428
-0.00861044
-0.665244
-0.00746737
-0.546007
-0.00652584
-0.454697
-0.00573192
-0.386691
-0.00503959
-0.338542
-0.00441891
-0.307667
-0.292738
-0.0038261
0.788291
-1234.67
0.638884
-1022.24
0.521098
-846.39
0.428706
-700.822
0.356349
-580.326
0.299624
-480.59
0.255012
-398.047
0.219731
-329.744
0.191602
-273.238
0.168921
-226.508
0.150354
-187.881
0.134847
-155.976
0.121555
-129.651
0.109791
-107.964
0.0989767
-90.1394
0.088611
-75.5388
0.0782416
-63.6401
0.0674433
-54.0174
0.0558008
-46.3267
0.0428994
-40.2927
0.0283236
-35.6998
0.0116767
-32.3835
-0.0073551
-30.2254
-0.0288446
-29.1485
-0.0520912
-29.0112
-0.0663367
-23.1519
-0.0730322
-18.478
-0.0738147
-14.7497
-0.0703546
-11.7755
-0.0642114
-9.40294
-0.0567024
-7.51025
-0.0488288
-6.00028
-0.0412738
-4.79539
-0.0344418
-3.83364
-0.0285198
-3.06577
-0.0235451
-2.45265
-0.0194615
-1.96325
-0.016157
-1.57297
-0.0135068
-1.26221
-0.0113902
-1.01539
-0.00969887
-0.820119
-0.00834005
-0.666603
-0.00723639
-0.547111
-0.00632448
-0.455609
-0.00555257
-0.387463
-0.0048768
-0.339218
-0.00426873
-0.308275
-0.293319
-0.00368749
0.843727
-1234.46
0.685137
-1022.08
0.560707
-846.266
0.463667
-700.725
0.388162
-580.25
0.32938
-480.531
0.283474
-398.001
0.247411
-329.708
0.218832
-273.21
0.195896
-226.485
0.177167
-187.862
0.161519
-155.96
0.148053
-129.638
0.136037
-107.952
0.124857
-90.1282
0.113979
-75.5279
0.102919
-63.629
0.0912155
-54.0057
0.0784146
-46.3139
0.0640567
-40.2784
0.0476758
-35.6834
0.0288184
-32.3647
0.00711191
-30.2037
-0.0175666
-29.1238
-0.0445064
-28.9843
-0.0613181
-23.135
-0.0696799
-18.4696
-0.0714597
-14.7479
-0.0685435
-11.7784
-0.0626759
-9.40881
-0.0553147
-7.51761
-0.0475503
-6.00804
-0.0401083
-4.80283
-0.0334037
-3.84035
-0.0276181
-3.07156
-0.0227814
-2.45749
-0.0188295
-1.9672
-0.0156434
-1.57616
-0.0130942
-1.26476
-0.0110599
-1.01742
-0.00943309
-0.821746
-0.0081231
-0.667913
-0.00705518
-0.548179
-0.00616857
-0.456496
-0.00541396
-0.388218
-0.00474988
-0.339882
-0.00414931
-0.308876
-0.293894
-0.00357433
0.902326
-1234.25
0.734182
-1021.91
0.602917
-846.135
0.501174
-700.623
0.422564
-580.172
0.361827
-480.47
0.314765
-397.954
0.278077
-329.671
0.2492
-273.181
0.226149
-226.462
0.207383
-187.844
0.191698
-155.945
0.178137
-129.624
0.165923
-107.94
0.154405
-90.1167
0.143014
-75.5165
0.131231
-63.6172
0.118556
-53.993
0.104495
-46.2998
0.0885385
-40.2624
0.0701637
-35.665
0.0488533
-32.3434
0.0241671
-30.179
-0.00408106
-29.0955
-0.035184
-28.9532
-0.054928
-23.1153
-0.0652459
-18.4593
-0.0682587
-14.7449
-0.0660845
-11.7806
-0.0606617
-9.41424
-0.0535921
-7.52468
-0.0460556
-6.01558
-0.0388198
-4.81007
-0.0323115
-3.84686
-0.0267112
-3.07716
-0.0220449
-2.46215
-0.0182458
-1.971
-0.0151901
-1.57921
-0.0127473
-1.2672
-0.0107965
-1.01937
-0.00923264
-0.823309
-0.00796825
-0.669177
-0.00693192
-0.549215
-0.00606599
-0.457361
-0.00532386
-0.38896
-0.00466655
-0.340539
-0.00406832
-0.309474
-0.294469
-0.00349415
0.964323
-1234.03
0.786248
-1021.73
0.647955
-845.996
0.541465
-700.517
0.459805
-580.09
0.397237
-480.408
0.349174
-397.906
0.312027
-329.634
0.283021
-273.152
0.260011
-226.439
0.241346
-187.825
0.225738
-155.929
0.212171
-129.61
0.199819
-107.928
0.187994
-90.1048
0.176089
-75.5046
0.16355
-63.6047
0.149836
-53.9793
0.134406
-46.2844
0.116699
-40.2447
0.0961277
-35.6444
0.0721051
-32.3193
0.0441129
-30.151
0.0118855
-29.0633
-0.0238906
-28.9174
-0.0469705
-23.0922
-0.0595672
-18.4467
-0.0640789
-14.7404
-0.0628711
-11.7818
-0.0580834
-9.41902
-0.051464
-7.5313
-0.0442825
-6.02276
-0.0373498
-4.817
-0.0311078
-3.8531
-0.0257403
-3.08253
-0.0212755
-2.46662
-0.0176481
-1.97463
-0.0147333
-1.58213
-0.0124019
-1.26953
-0.0105358
-1.02124
-0.00903411
-0.824811
-0.00781333
-0.670398
-0.00680597
-0.550223
-0.00595776
-0.45821
-0.00522496
-0.389693
-0.00457119
-0.341193
-0.00397204
-0.310073
-0.295045
-0.00339572
1.02994
-1233.79
0.841526
-1021.55
0.695993
-845.851
0.5847
-700.406
0.500048
-580.005
0.43577
-480.343
0.386868
-397.857
0.349445
-329.597
0.320485
-273.123
0.297683
-226.416
0.279263
-187.807
0.263853
-155.914
0.250372
-129.597
0.237947
-107.915
0.225847
-90.0927
0.213429
-75.4922
0.200097
-63.5913
0.18527
-53.9645
0.168357
-46.2675
0.148737
-40.2251
0.125755
-35.6215
0.0987436
-32.2923
0.0670958
-30.1194
0.0304518
-29.0267
-0.010548
-28.8764
-0.0374054
-23.0654
-0.0526381
-18.4315
-0.0589457
-14.7341
-0.0589551
-11.7818
-0.0550133
-9.42296
-0.0490164
-7.53729
-0.0423246
-6.02945
-0.0357947
-4.82353
-0.0298883
-3.85901
-0.0247989
-3.08762
-0.0205629
-2.47085
-0.0171224
-1.97807
-0.0143551
-1.58489
-0.0121358
-1.27175
-0.0103518
-1.02302
-0.00890735
-0.826256
-0.00772427
-0.671581
-0.00673949
-0.551207
-0.00590247
-0.459047
-0.00517248
-0.390423
-0.00451599
-0.341849
-0.0039098
-0.310679
-0.295629
-0.00332563
1.09942
-1233.53
0.900216
-1021.35
0.747216
-845.698
0.631054
-700.29
0.543459
-579.918
0.4776
-480.278
0.428032
-397.807
0.390513
-329.559
0.361786
-273.094
0.339363
-226.394
0.321341
-187.789
0.306255
-155.899
0.292958
-129.584
0.280526
-107.903
0.268185
-90.0804
0.255252
-75.4793
0.24109
-63.5772
0.225072
-53.9485
0.206554
-46.2489
0.184849
-40.2034
0.159229
-35.5958
0.128936
-32.262
0.0932631
-30.0837
0.0517361
-28.9851
0.00492433
-28.8296
-0.0261895
-23.0343
-0.0444518
-18.4132
-0.0528832
-14.7256
-0.0543866
-11.7803
-0.0515209
-9.42583
-0.0463313
-7.54248
-0.0402703
-6.03551
-0.0342446
-4.82956
-0.0287422
-3.86451
-0.0239733
-3.09238
-0.0199899
-2.47484
-0.0167475
-1.98131
-0.0141301
-1.58751
-0.0120199
-1.27386
-0.0103114
-1.02473
-0.00891589
-0.827651
-0.00776119
-0.672736
-0.00678938
-0.552179
-0.00595403
-0.459882
-0.00521758
-0.391159
-0.00454931
-0.342518
-0.00392718
-0.311301
-0.29623
-0.00332615
1.17302
-1233.26
0.962576
-1021.14
0.801868
-845.537
0.680773
-700.168
0.590293
-579.827
0.522987
-480.21
0.472927
-397.757
0.43551
-329.522
0.407211
-273.066
0.385348
-226.372
0.367883
-187.771
0.353255
-155.884
0.340245
-129.571
0.327877
-107.89
0.31533
-90.0679
0.301881
-75.4658
0.28685
-63.5622
0.26956
-53.9312
0.249309
-46.2287
0.225341
-40.1794
0.196845
-35.5673
0.162963
-32.2282
0.122875
-30.0436
0.0759753
-28.9382
0.0227322
-28.7764
-0.0131542
-22.9984
-0.0348784
-18.3915
-0.0457918
-14.7147
-0.0490901
-11.777
-0.0475485
-9.42737
-0.0433618
-7.54667
-0.038078
-6.0408
-0.0326595
-4.83497
-0.0276286
-3.86954
-0.0232205
-3.09679
-0.0195111
-2.47855
-0.0164759
-1.98435
-0.0140097
-1.58998
-0.0120049
-1.27587
-0.0103655
-1.02637
-0.00901113
-0.829005
-0.00787654
-0.67387
-0.00690936
-0.553146
-0.00606748
-0.460724
-0.00531658
-0.39191
-0.00462869
-0.343206
-0.00398286
-0.311947
-0.296856
-0.00335719
1.25103
-1232.97
1.02885
-1020.91
0.860179
-845.368
0.734072
-700.042
0.640759
-579.734
0.572138
-480.142
0.521768
-397.707
0.484653
-329.485
0.45698
-273.038
0.435863
-226.351
0.41912
-187.754
0.405085
-155.87
0.392469
-129.558
0.380235
-107.878
0.36752
-90.0551
0.353554
-75.4519
0.337612
-63.5462
0.318965
-53.9126
0.296848
-46.2066
0.270431
-40.153
0.23881
-35.5357
0.201021
-32.1904
0.156112
-29.9987
0.103325
-28.8854
0.0429987
-28.716
0.00179197
-22.9572
-0.0238582
-18.3658
-0.0376412
-14.7009
-0.0430579
-11.7716
-0.0431038
-9.42733
-0.0401249
-7.54965
-0.0357688
-6.04515
-0.0310614
-4.83968