/*--------------------------------*- C++ -*----------------------------------*\
  =========                 |
  \\      /  F ield         | OpenFOAM: The Open Source CFD Toolbox
   \\    /   O peration     | Website:  https://openfoam.org
    \\  /    A nd           | Version:  10
     \\/     M anipulation  |
\*---------------------------------------------------------------------------*/
FoamFile
{
    format      ascii;
    class       volVectorField;
    location    "5";
    object      U;
}
// * * * * * * * * * * * * * * * * * * * * * * * * * * * * * * * * * * * * * //

dimensions      [0 1 -1 0 0 0 0];

internalField   nonuniform List<vector> 
38016
(
(52.0831 -0.00176241 2.26327e-25)
(52.0842 -0.000798797 1.09707e-25)
(52.0851 -0.000616325 -1.32505e-25)
(52.0861 -0.000488707 0)
(52.0871 -0.000415909 0)
(52.0882 -0.000376372 0)
(52.0894 -0.000355618 -1.25012e-25)
(52.0909 -0.000340212 -1.23526e-21)
(52.0926 -0.000313894 1.89815e-25)
(52.0947 -0.000253886 -2.28975e-25)
(52.0971 -0.000126798 -5.91572e-22)
(52.0999 0.000115997 3.28707e-26)
(52.1031 0.000542829 -5.03815e-22)
(52.1065 0.00124592 -6.93305e-22)
(52.1102 0.00234563 4.99612e-22)
(52.1138 0.00399607 0)
(52.1171 0.00639607 0)
(52.1195 0.0098123 0)
(52.1203 0.0146249 -1.80268e-24)
(52.1187 0.0214119 2.07165e-24)
(52.113 0.031103 -9.44484e-22)
(52.1012 0.0452481 1.46846e-21)
(52.0798 0.0667668 -2.26726e-21)
(52.0441 0.0999205 1.75109e-23)
(51.9684 0.155398 -5.48396e-21)
(51.8585 0.241214 8.56708e-26)
(51.7094 0.355239 -5.48586e-21)
(51.5228 0.495619 6.6675e-23)
(51.304 0.659792 1.27717e-25)
(51.061 0.845097 0)
(50.8026 1.0499 1.63909e-25)
(50.5366 1.27356 2.8267e-22)
(50.2693 1.51566 -1.25946e-20)
(50.0058 1.77526 0)
(49.7501 2.05035 0)
(49.5051 2.33763 0)
(49.2731 2.63262 0)
(49.0554 2.93004 -4.05223e-21)
(48.8531 3.22439 -2.7828e-21)
(48.6665 3.5106 -1.96366e-22)
(48.4955 3.78437 -2.23721e-22)
(48.3396 4.04258 8.84878e-21)
(48.197 4.28365 -1.90139e-21)
(48.065 4.50772 2.36206e-21)
(47.9394 4.71613 0)
(47.8148 4.90753 0)
(47.6759 5.09169 -1.53771e-20)
(47.4813 5.31907 1.41246e-20)
(52.0831 -0.00180743 -1.51076e-20)
(52.0842 -0.00082937 4.43122e-25)
(52.0852 -0.000646095 8.60343e-21)
(52.0861 -0.000519093 0)
(52.0871 -0.000448436 0)
(52.0882 -0.000412438 -3.38382e-21)
(52.0895 -0.00039655 7.75775e-27)
(52.091 -0.000387284 1.23543e-21)
(52.0927 -0.000368263 -1.49302e-21)
(52.0948 -0.000316431 -1.16145e-25)
(52.0973 -0.000197794 -5.57493e-22)
(52.1001 3.74128e-05 -1.92229e-25)
(52.1033 0.000459512 5.03572e-22)
(52.1068 0.00116401 6.92927e-22)
(52.1106 0.00227641 -4.99154e-22)
(52.1143 0.00395872 1.43227e-21)
(52.1177 0.00642165 1.12218e-21)
(52.1202 0.00994986 -2.16667e-24)
(52.1212 0.0149514 -9.76123e-25)
(52.1196 0.022049 4.02396e-24)
(52.1141 0.0322471 2.79205e-21)
(52.1021 0.0472245 -4.35578e-21)
(52.0799 0.0701284 2.27814e-21)
(52.0405 0.105576 6.87254e-21)
(51.9723 0.165718 -5.47327e-21)
(51.8602 0.25957 -2.87605e-23)
(51.708 0.384964 5.41527e-21)
(51.5179 0.540097 1.9859e-20)
(51.296 0.722173 -1.69783e-20)
(51.0513 0.928143 0)
(50.7928 1.15598 0)
(50.5288 1.40471 1.67598e-20)
(50.2659 1.6736 1.22352e-20)
(50.0091 1.9613 -1.79263e-20)
(49.7621 2.2653 0)
(49.5278 2.58169 1.76989e-20)
(49.308 2.90535 0)
(49.1039 3.23035 4.04966e-21)
(48.9159 3.55064 -5.65073e-21)
(48.7439 3.86069 7.0315e-21)
(48.5877 4.1559 -9.47183e-21)
(48.4461 4.43306 -3.00119e-21)
(48.3171 4.69064 -1.95971e-21)
(48.1978 4.92903 2.43506e-21)
(48.0839 5.15016 0)
(47.9703 5.35328 0)
(47.8402 5.5494 -1.17734e-20)
(47.6477 5.80703 1.43577e-20)
(52.0831 -0.0018487 -1.93725e-22)
(52.0842 -0.000856937 0)
(52.0852 -0.000673616 -1.72818e-20)
(52.0861 -0.000547754 0)
(52.0871 -0.000479614 0)
(52.0882 -0.00044743 3.3838e-21)
(52.0895 -0.000436635 -6.15834e-26)
(52.091 -0.000433736 9.3003e-26)
(52.0927 -0.000422307 1.49302e-21)
(52.0948 -0.000379087 -1.13045e-25)
(52.0972 -0.00026957 1.14967e-21)
(52.1001 -4.29448e-05 1.41065e-21)
(52.1033 0.000373034 -1.84095e-21)
(52.1068 0.00107714 -1.29357e-24)
(52.1106 0.00220019 8.36597e-25)
(52.1143 0.00391247 -1.43142e-21)
(52.1177 0.00643748 -1.12179e-21)
(52.1202 0.0100797 5.73839e-25)
(52.1212 0.0152788 -2.43392e-24)
(52.1197 0.0227094 0)
(52.1142 0.0334647 -5.45823e-21)
(52.1024 0.0493823 2.88695e-21)
(52.0803 0.0739091 -4.43514e-21)
(52.0414 0.112214 -1.36696e-20)
(51.9728 0.177523 1.65364e-23)
(51.8613 0.279662 0)
(51.7103 0.416536 2.19821e-20)
(51.5219 0.586196 -1.96897e-20)
(51.3024 0.785475 1.68511e-20)
(51.0606 1.01081 0)
(50.806 1.2597 7.74356e-22)
(50.5468 1.53074 1.50227e-20)
(50.2896 1.82284 3.14748e-21)
(50.0395 2.13422 1.33611e-20)
(49.8004 2.46188 -2.26739e-20)
(49.575 2.80138 -1.76658e-20)
(49.3652 3.14702 0)
(49.1719 3.4924 -1.66271e-20)
(48.9955 3.83106 5.71396e-21)
(48.8356 4.1572 -7.10675e-21)
(48.6914 4.46618 1.91888e-20)
(48.5616 4.75486 -1.199e-20)
(48.4439 5.02204 1.96354e-20)
(48.3352 5.26852 -4.12444e-21)
(48.2315 5.49694 7.14656e-22)
(48.1281 5.70796 -3.38927e-20)
(48.0095 5.91609 4.53457e-23)
(47.8364 6.18751 -2.99729e-20)
(52.0831 -0.00189222 4.62853e-20)
(52.0842 -0.000885721 0)
(52.0852 -0.000702125 8.67687e-21)
(52.0861 -0.000577276 1.24536e-24)
(52.0871 -0.000511606 1.15368e-20)
(52.0882 -0.000483252 -2.04585e-25)
(52.0895 -0.000477615 -4.00927e-21)
(52.091 -0.000481192 0)
(52.0927 -0.000477496 -2.89111e-21)
(52.0948 -0.000443058 0)
(52.0972 -0.000342854 2.16057e-21)
(52.1001 -0.000125016 -1.41099e-21)
(52.1033 0.000284616 1.84098e-21)
(52.1068 0.000988061 5.65862e-25)
(52.1106 0.00212136 1.70193e-21)
(52.1143 0.0038629 2.57483e-21)
(52.1177 0.00644867 -2.45875e-24)
(52.1202 0.0102024 2.89583e-24)
(52.1213 0.015594 0)
(52.1198 0.0233481 -4.39608e-21)
(52.1144 0.0346424 7.13628e-21)
(52.1028 0.0514641 -5.57049e-21)
(52.0811 0.077539 1.31572e-20)
(52.0429 0.118541 6.84893e-21)
(51.9743 0.188907 1.08667e-20)
(51.864 0.299455 1.15885e-22)
(51.7145 0.448117 -3.74032e-23)
(51.5281 0.632848 -4.03324e-20)
(51.311 0.850122 3.47743e-20)
(51.072 1.09585 0)
(50.8207 1.367 0)
(50.5653 1.66172 3.76426e-22)
(50.3129 1.97848 -2.53493e-20)
(50.0687 2.31501 0)
(49.8367 2.66778 2.56629e-20)
(49.6198 3.03173 0)
(49.4198 3.40061 0)
(49.2375 3.76749 1.6578e-20)
(49.0732 4.12557 -1.08737e-20)
(48.9259 4.46884 -1.46931e-20)
(48.7947 4.79267 1.87267e-20)
(48.6776 5.09418 1.23602e-20)
(48.5722 5.37256 3.17478e-20)
(48.4753 5.62921 -3.80217e-20)
(48.3832 5.86748 0)
(48.2921 6.08976 -5.88913e-23)
(48.1886 6.31274 -6.68701e-20)
(48.0445 6.59601 6.6426e-20)
(52.0831 -0.00193774 -3.09861e-20)
(52.0842 -0.000915562 -1.8233e-24)
(52.0852 -0.000731519 1.76538e-20)
(52.0861 -0.000607599 -1.00406e-20)
(52.0871 -0.00054438 -1.15368e-20)
(52.0882 -0.000519895 -6.75948e-21)
(52.0895 -0.000519497 -3.97105e-21)
(52.091 -0.000529665 0)
(52.0927 -0.000533837 2.8912e-21)
(52.0948 -0.000508307 -5.28856e-26)
(52.0972 -0.000417483 -2.16008e-21)
(52.1001 -0.000208349 -3.18993e-25)
(52.1033 0.00019534 0)
(52.1068 0.000899124 6.25294e-25)
(52.1106 0.00204469 -1.70267e-21)
(52.1143 0.00381926 -2.57479e-21)
(52.1177 0.00647227 -1.93154e-21)
(52.1203 0.0103483 3.15791e-21)
(52.1214 0.0159501 0)
(52.12 0.024056 8.65814e-21)
(52.1147 0.0359353 -3.52553e-21)
(52.1032 0.053738 5.58329e-21)
(52.0817 0.081493 -1.73629e-20)
(52.0437 0.125427 -3.43789e-23)
(51.976 0.201271 3.45351e-23)
(51.8666 0.320904 1.16212e-22)
(51.7185 0.482297 -4.46089e-20)
(51.534 0.683316 4.05902e-20)
(51.3193 0.920045 2.67258e-22)
(51.0835 1.18782 0)
(50.8362 1.48302 -1.57914e-21)
(50.5861 1.8033 -3.22283e-20)
(50.3404 2.14658 2.53211e-20)
(50.1045 2.51008 0)
(49.8826 2.88963 0)
(49.6776 3.27954 -3.64736e-20)
(49.4912 3.67294 1.30107e-20)
(49.324 4.0624 -1.62582e-20)
(49.1757 4.44077 -8.82084e-22)
(49.0453 4.80192 2.89745e-20)
(48.931 5.14129 -1.93271e-20)
(48.8305 5.45636 -2.47063e-20)
(48.7412 5.74685 -6.36942e-20)
(48.6599 6.01474 8.59495e-20)
(48.5835 6.26402 9.51173e-20)
(48.5093 6.4987 -1.08446e-19)
(48.4269 6.73543 -7.76683e-21)
(48.3153 7.02703 -8.40641e-21)
(52.0831 -0.00198536 0)
(52.0842 -0.000946507 0)
(52.0852 -0.000761847 -1.76506e-20)
(52.0861 -0.000638771 1.00394e-20)
(52.0871 -0.000577993 0)
(52.0882 -0.000557423 6.75953e-21)
(52.0895 -0.00056236 7.98091e-21)
(52.091 -0.000579256 -2.90528e-25)
(52.0927 -0.000591459 0)
(52.0948 -0.000575002 0)
(52.0972 -0.000493684 -4.04383e-21)
(52.1001 -0.000293254 0)
(52.1033 0.000104764 0)
(52.1068 0.00080967 -2.11462e-21)
(52.1106 0.00196919 -3.00965e-21)
(52.1144 0.00377993 2.28511e-21)
(52.1178 0.0065057 1.9293e-21)
(52.1204 0.0105132 -6.16247e-21)
(52.1215 0.0163401 -4.31759e-24)
(52.1202 0.0248218 -4.25212e-21)
(52.115 0.0373249 6.69768e-21)
(52.1037 0.0561716 0)
(52.0825 0.0857123 8.61537e-21)
(52.045 0.132761 0)
(51.978 0.214432 0)
(51.8701 0.34373 -1.16489e-22)
(51.724 0.518676 6.67961e-20)
(51.5421 0.737035 -4.07813e-20)
(51.3308 0.994458 -3.50119e-20)
(51.0991 1.28563 0)
(50.8571 1.60629 -4.41364e-20)
(50.6136 1.95346 -2.00041e-21)
(50.376 2.32447 -5.50801e-20)
(50.1502 2.71589 -2.79452e-20)
(49.9402 3.12287 -1.32225e-20)
(49.7492 3.53901 8.19076e-20)
(49.5785 3.95678 -1.31053e-20)
(49.4285 4.36825 1.63722e-20)
(49.2986 4.76597 2.26612e-20)
(49.187 5.14374 -4.54264e-20)
(49.0915 5.49719 5.71144e-20)
(49.0095 5.82422 5.06369e-20)
(48.938 6.12512 -7.72905e-20)
(48.8741 6.40244 -9.67338e-21)
(48.8154 6.66059 9.5184e-20)
(48.7601 6.90489 -1.0164e-19)
(48.701 7.15069 7.74395e-21)
(48.6214 7.4439 8.38158e-21)
(52.0831 -0.00203514 -3.95303e-24)
(52.0842 -0.000978601 0)
(52.0852 -0.000793153 1.79519e-20)
(52.0861 -0.000670842 -2.54489e-24)
(52.0871 -0.000612499 1.38947e-24)
(52.0882 -0.000595901 -2.4893e-24)
(52.0895 -0.000606284 -7.9035e-21)
(52.091 -0.000630062 9.30482e-21)
(52.0927 -0.000650483 0)
(52.0948 -0.000643293 -6.5267e-21)
(52.0972 -0.000571635 4.044e-21)
(52.1001 -0.000379942 3.05622e-25)
(52.1033 1.26492e-05 -3.67649e-25)
(52.1069 0.000719458 2.11468e-21)
(52.1106 0.00189465 3.00891e-21)
(52.1144 0.00374483 -2.28288e-21)
(52.1179 0.00654912 -1.53153e-24)
(52.1205 0.0106977 3.00738e-21)
(52.1217 0.0167653 4.13362e-24)
(52.1204 0.0256475 0)
(52.1154 0.0388137 -6.72492e-21)
(52.1043 0.058768 -1.04942e-20)
(52.0833 0.0901994 0)
(52.0464 0.14054 0)
(51.9804 0.228356 1.16371e-22)
(51.8742 0.367836 -1.45986e-22)
(51.7305 0.557039 -4.44764e-20)
(51.5517 0.793606 4.07695e-20)
(51.3444 1.0727 6.4813e-22)
(51.1178 1.38828 -1.85308e-21)
(50.8821 1.73533 4.86109e-20)
(50.6465 2.11014 -6.98118e-20)
(50.4186 2.50936 4.85299e-20)
(50.2046 2.92881 7.48096e-20)
(50.0086 3.36284 0)
(49.8337 3.80431 -3.66876e-20)
(49.681 4.24501 -1.31798e-20)
(49.5506 4.67654 5.0604e-20)
(49.4411 5.0912 -4.53492e-20)
(49.3503 5.48282 2.99086e-20)
(49.2755 5.84733 0)
(49.2135 6.18314 1.24002e-20)
(49.1612 6.49116 -3.19573e-23)
(49.116 6.77443 -7.88248e-20)
(49.076 7.03759 1.99135e-19)
(49.0404 7.28699 2.80252e-21)
(49.0048 7.53667 -1.22219e-19)
(48.9559 7.82304 1.66523e-20)
(52.0832 -0.00208716 6.50798e-20)
(52.0842 -0.00101189 -3.19723e-20)
(52.0852 -0.000825485 1.82425e-20)
(52.0861 -0.00070386 2.04529e-20)
(52.0871 -0.000647954 6.76948e-26)
(52.0882 -0.000635394 1.68001e-24)
(52.0895 -0.000651346 1.57705e-20)
(52.091 -0.000682179 -9.30527e-21)
(52.0927 -0.000711027 1.71831e-25)
(52.0948 -0.000713326 6.52712e-21)
(52.0972 -0.000651513 0)
(52.1001 -0.000468621 -4.53549e-21)
(52.1033 -8.12329e-05 -3.74274e-25)
(52.1069 0.000628259 4.49404e-25)
(52.1107 0.0018209 7.64401e-25)
(52.1144 0.00371393 3.98937e-21)
(52.1179 0.00660275 2.00661e-24)
(52.1206 0.0109025 -2.36323e-24)
(52.1218 0.0172269 0)
(52.1207 0.0265356 0)
(52.1157 0.0404057 0)
(52.1049 0.0615327 1.05371e-20)
(52.0843 0.0949616 1.38006e-23)
(52.048 0.148771 -1.30794e-20)
(51.9832 0.243047 0)
(51.8788 0.393205 0)
(51.7379 0.597334 0)
(51.5629 0.852915 4.11295e-20)
(51.3602 1.15456 -7.12879e-20)
(51.1396 1.49542 6.08022e-20)
(50.9112 1.86959 4.04864e-20)
(50.6847 2.27254 7.90445e-20)
(50.4681 2.7001 4.62194e-20)
(50.2675 3.14725 -3.75135e-20)
(50.0875 3.60747 0)
(49.9306 4.07279 0)
(49.7979 4.53435 -2.4314e-20)
(49.6888 4.98331 -3.28891e-20)
(49.6014 5.41184 2.26873e-20)
(49.5329 5.8139 -2.98362e-20)
(49.4798 6.18586 7.94396e-20)
(49.4385 6.52673 -1.98857e-19)
(49.4059 6.83805 1.3878e-19)
(49.3796 7.12331 0)
(49.3583 7.38725 -1.89196e-19)
(49.3419 7.63703 2.15682e-19)
(49.3281 7.88594 1.53133e-20)
(49.3073 8.15791 -1.66167e-20)
(52.0832 -0.00214151 -1.30958e-19)
(52.0842 -0.00104644 3.19814e-20)
(52.0852 -0.000858893 -3.61932e-20)
(52.0861 -0.000737878 -2.04545e-20)
(52.0871 -0.000684415 0)
(52.0882 -0.000675971 8.06812e-25)
(52.0895 -0.000697629 7.78867e-21)
(52.091 -0.000735707 0)
(52.0927 -0.000773216 -1.06195e-20)
(52.0948 -0.000785255 0)
(52.0972 -0.000733506 1.12433e-25)
(52.1001 -0.000559505 4.53559e-21)
(52.1033 -0.000177118 0)
(52.1069 0.000535847 0)
(52.1107 0.00174777 7.09995e-25)
(52.1145 0.00368724 -3.99241e-21)
(52.118 0.00666696 1.34329e-24)
(52.1207 0.0111285 -5.13727e-21)
(52.122 0.0177271 0)
(52.1209 0.0274893 0)
(52.1161 0.0421064 0)
(52.1055 0.0644744 -2.51091e-23)
(52.0854 0.100011 2.68802e-23)
(52.0498 0.157471 1.30361e-20)
(51.9863 0.258527 0)
(51.8842 0.419862 0)
(51.7465 0.63958 4.43262e-20)
(51.5757 0.914965 -8.18233e-20)
(51.3786 1.24001 -3.34413e-22)
(51.1647 1.60693 -5.8679e-20)
(50.9448 2.00885 -4.63136e-20)
(50.7288 2.44028 7.10159e-20)
(50.5249 2.89608 -5.22427e-20)
(50.3395 3.37029 0)
(50.1771 3.85545 0)
(50.0401 4.34276 9.40084e-20)
(49.9291 4.82269 -2.46223e-20)
(49.8429 5.28606 -3.41551e-20)
(49.7789 5.72501 4.55034e-20)
(49.7335 6.13381 2.98519e-20)
(49.7025 6.50939 -7.92102e-20)
(49.6822 6.85144 9.72113e-20)
(49.669 7.16219 0)
(49.6609 7.44558 0)
(49.6572 7.70632 -3.46954e-20)
(49.6582 7.9523 0)
(49.6634 8.19682 -3.04371e-20)
(49.6671 8.44849 0)
(52.0832 -0.00219825 6.58631e-20)
(52.0842 -0.00108229 0)
(52.0852 -0.000893428 -3.67971e-20)
(52.0861 -0.00077295 -2.0699e-20)
(52.0871 -0.000721943 -2.35227e-20)
(52.0882 -0.0007177 -1.60908e-24)
(52.0895 -0.000745215 -3.1233e-20)
(52.091 -0.000790749 -1.66731e-24)
(52.0927 -0.000837178 1.06201e-20)
(52.0948 -0.000859239 3.79347e-25)
(52.0972 -0.000817806 6.98294e-21)
(52.1001 -0.000652822 0)
(52.1033 -0.000275255 0)
(52.1069 0.00044198 0)
(52.1107 0.00167509 -2.22091e-21)
(52.1145 0.00366476 3.4107e-21)
(52.118 0.0067421 -2.81856e-21)
(52.1208 0.0113768 5.14053e-21)
(52.1222 0.0182677 -3.57934e-24)
(52.1212 0.0285123 0)
(52.1166 0.0439213 1.4969e-23)
(52.1062 0.0676013 -1.64886e-23)
(52.0866 0.10536 0)
(52.0519 0.166655 -2.55264e-20)
(51.9898 0.274812 1.15542e-22)
(51.8902 0.447821 -1.44917e-22)
(51.7562 0.683779 -4.47577e-20)
(51.5904 0.979725 -1.09352e-22)
(51.3996 1.32895 7.02465e-20)
(51.1936 1.72264 6.08872e-20)
(50.9834 2.15279 3.2662e-21)
(50.7792 2.61281 -7.50524e-20)
(50.5896 3.0965 0)
(50.4212 3.59682 0)
(50.2782 4.10531 -5.37511e-20)
(50.1628 4.61231 -7.43342e-20)
(50.075 5.10773 5.07619e-20)
(50.0129 5.58213 3.41877e-20)
(49.973 6.02778 -3.3475e-23)
(49.9509 6.43944 -5.94973e-20)
(49.942 6.81474 7.87809e-20)
(49.9418 7.15418 3.58379e-21)
(49.9469 7.46068 -9.10141e-20)
(49.9556 7.73867 -1.89851e-20)
(49.9674 7.99281 2.30354e-20)
(49.9834 8.2316 -2.16656e-19)
(50.004 8.46926 4.96728e-19)
(50.028 8.69655 -2.56329e-19)
(52.0832 -0.00225749 -7.30795e-24)
(52.0842 -0.0011195 -6.58808e-20)
(52.0852 -0.000929142 7.38895e-20)
(52.0861 -0.00080913 2.07024e-20)
(52.0871 -0.000760597 2.35249e-20)
(52.0882 -0.000760653 1.68644e-24)
(52.0895 -0.000794192 1.55794e-20)
(52.091 -0.000847411 1.11683e-24)
(52.0927 -0.000903044 -3.07222e-25)
(52.0948 -0.000935443 3.70622e-25)
(52.0972 -0.000904616 -2.7603e-22)
(52.1001 -0.000748806 7.71332e-27)
(52.1033 -0.000375905 0)
(52.1069 0.000346401 -2.91316e-21)
(52.1107 0.00160266 2.22056e-21)
(52.1146 0.00364648 -3.40985e-21)
(52.1181 0.00682851 2.81747e-21)
(52.1209 0.0116482 4.54479e-21)
(52.1223 0.0188506 5.07071e-24)
(52.1215 0.0296076 2.86064e-24)
(52.1171 0.0458556 4.79967e-24)
(52.107 0.0709209 9.60044e-21)
(52.0879 0.111019 2.59054e-23)
(52.0541 0.176335 2.55262e-20)
(51.9937 0.291913 0)
(51.8971 0.477082 -2.33747e-22)
(51.7673 0.729905 2.93265e-22)
(51.6072 1.04712 -4.22748e-20)
(51.4236 1.42123 9.85687e-22)
(51.2265 1.84227 2.06098e-22)
(51.0273 2.30096 9.3844e-20)
(50.8364 2.78947 -7.64049e-20)
(50.6627 3.30039 6.15518e-21)
(50.5129 3.8255 -8.64025e-20)
(50.391 4.35532 6.64313e-20)
(50.2988 4.87936 0)
(50.2354 5.38702 0)
(50.1981 5.86879 3.39998e-20)
(50.1825 6.31727 -4.37969e-20)
(50.1834 6.72788 3.00828e-21)
(50.1955 7.09912 -1.91272e-19)
(50.2141 7.43239 9.5916e-20)
(50.2359 7.73138 -3.0739e-20)
(50.2591 8.00102 1.8943e-20)
(50.284 8.24596 1.83485e-19)
(50.3119 8.47512 -2.09298e-19)
(50.3442 8.70458 0)
(50.3841 8.90509 -2.56978e-19)
(52.0832 -0.00231929 -1.36436e-19)
(52.0842 -0.00115813 -6.71775e-20)
(52.0852 -0.000966087 -3.70922e-20)
(52.0861 -0.000846474 4.19026e-20)
(52.0871 -0.000800439 -2.9707e-24)
(52.0882 -0.0008049 -2.69735e-20)
(52.0895 -0.000844644 0)
(52.091 -0.000905801 1.76471e-20)
(52.0927 -0.000970949 1.00564e-20)
(52.0948 -0.00101403 5.69666e-21)
(52.0972 -0.000994145 -1.31391e-20)
(52.1001 -0.00084771 -5.87058e-26)
(52.1033 -0.000479343 0)
(52.1069 0.000248834 5.56432e-21)
(52.1107 0.00153029 3.65254e-21)
(52.1146 0.00363236 2.82913e-21)
(52.1182 0.00692649 -1.06029e-24)
(52.121 0.0119436 -4.54511e-21)
(52.1225 0.0194775 0)
(52.1218 0.0307785 8.39623e-24)
(52.1176 0.0479141 -9.46955e-24)
(52.1079 0.07444 -9.61747e-21)
(52.0894 0.116996 -2.54048e-23)
(52.0566 0.186519 6.53924e-23)
(51.9981 0.309834 -2.09855e-20)
(51.9048 0.50763 -4.45863e-20)
(51.7799 0.777909 4.41637e-20)
(51.6262 1.11705 1.65682e-19)
(51.4508 1.51666 2.64661e-21)
(51.2639 1.96549 -5.84415e-20)
(51.0769 2.45283 -9.9107e-20)
(50.9009 2.96946 -1.65614e-22)
(50.7448 3.50662 1.05791e-19)
(50.6152 4.05487 7.61057e-20)
(50.5159 4.60366 -2.8437e-20)
(50.4479 5.14172 1.48831e-19)
(50.4097 5.65811 5.44515e-20)
(50.3975 6.14344 -6.60209e-20)
(50.4058 6.59087 4.50136e-20)
(50.4288 6.99667 9.12673e-20)
(50.4604 7.36037 -2.65269e-19)
(50.4959 7.68436 1.89817e-19)
(50.5319 7.97317 -2.45484e-19)
(50.5671 8.23224 6.13883e-19)
(50.6021 8.46622 -3.5362e-19)
(50.6389 8.68428 0)
(50.6793 8.90516 -4.99944e-19)
(50.731 9.07788 5.11662e-19)
(52.0832 -0.00238375 1.36434e-19)
(52.0842 -0.00119823 2.00259e-19)
(52.0852 -0.00100432 -3.77022e-20)
(52.0861 -0.000885036 -8.40453e-20)
(52.0871 -0.000841532 0)
(52.0882 -0.000850515 2.69745e-20)
(52.0895 -0.000896661 0)
(52.091 -0.000966028 -1.76477e-20)
(52.0927 -0.00104103 -1.00561e-20)
(52.0948 -0.00109519 -5.69757e-21)
(52.0972 -0.00108661 1.25883e-20)
(52.1001 -0.000949792 3.4315e-21)
(52.1033 -0.000585858 -3.9186e-21)
(52.1069 0.000148989 -2.65076e-21)
(52.1108 0.00145772 -3.65237e-21)
(52.1146 0.00362232 -2.82908e-21)
(52.1183 0.00703631 0)
(52.1212 0.0122639 0)
(52.1228 0.0201503 -4.63263e-24)
(52.1222 0.0320279 -6.34286e-21)
(52.1182 0.0501012 1.09479e-20)
(52.1089 0.0781649 0)
(52.091 0.123298 0)
(52.0594 0.197214 0)
(52.0031 0.32857 4.14484e-20)
(51.9136 0.539439 9.02013e-20)
(51.7941 0.827718 -4.47417e-20)
(51.6477 1.18935 -8.28494e-20)
(51.4816 1.61496 0)
(51.306 2.09185 0)
(51.1328 2.60774 -6.57567e-21)
(50.9732 3.15185 7.97706e-20)
(50.8362 3.71397 -1.05661e-19)
(50.7283 4.28335 2.03403e-20)
(50.6529 4.84839 -7.89645e-20)
(50.6101 5.39719 -7.41035e-20)
(50.5974 5.91864 -2.35566e-22)
(50.6099 6.4037 -6.75412e-20)
(50.6412 6.84631 0)
(50.6846 7.24384 2.34994e-19)
(50.7338 7.59698 -1.84109e-19)
(50.7837 7.90919 0)
(50.8313 8.18583 0)
(50.8755 8.43289 -1.84366e-20)
(50.9178 8.65497 0)
(50.9606 8.86126 -2.53246e-20)
(51.0058 9.07388 2.88798e-20)
(51.066 9.21883 -1.54722e-20)
(52.0832 -0.00245095 -1.3959e-19)
(52.0842 -0.00123986 6.4666e-22)
(52.0852 -0.00104389 -3.82892e-20)
(52.0861 -0.000924875 8.4554e-20)
(52.0871 -0.000883937 -2.38285e-20)
(52.0882 -0.000897572 -3.38609e-24)
(52.0895 -0.000950334 0)
(52.091 -0.00102821 1.01977e-24)
(52.0927 -0.00111344 -1.23072e-24)
(52.0948 -0.00117909 0)
(52.0972 -0.00118224 -2.75291e-22)
(52.1001 -0.00105532 -3.43173e-21)
(52.1033 -0.000695759 3.91892e-21)
(52.1069 4.65545e-05 -4.24932e-21)
(52.1108 0.00138472 0)
(52.1147 0.00361627 0)
(52.1183 0.00715817 0)
(52.1213 0.0126099 0)
(52.123 0.0208705 4.41192e-24)
(52.1226 0.0333584 6.34388e-21)
(52.1188 0.0524208 -2.15319e-20)
(52.1099 0.0821002 -2.27685e-23)
(52.0928 0.12993 2.43732e-23)
(52.0625 0.20842 -2.42739e-20)
(52.0086 0.348108 -2.07575e-20)
(51.9233 0.572463 -8.94982e-20)
(51.81 0.879227 8.82685e-22)
(51.6719 1.26384 -1.10737e-21)
(51.5162 1.7158 7.20491e-20)
(51.3534 2.22084 0)
(51.1954 2.76494 0)
(51.0536 3.3356 -8.1276e-20)
(50.9373 3.92106 1.23092e-20)
(50.8525 4.50924 -2.0262e-20)
(50.8019 5.08756 1.85163e-19)
(50.7848 5.64363 -7.33292e-20)
(50.7974 6.16639 -5.00504e-20)
(50.8338 6.64744 6.89089e-20)
(50.8865 7.08177 -2.19921e-19)
(50.9483 7.468 -1.19588e-19)
(51.0125 7.80811 3.16985e-20)
(51.0742 8.10666 4.21079e-19)
(51.1306 8.36986 -2.31192e-19)
(51.1812 8.60416 3.26365e-19)
(51.228 8.81408 -3.41244e-19)
(51.2741 9.00859 -3.54116e-19)
(51.3215 9.21377 4.4471e-19)
(51.3873 9.33164 0)
(52.0832 -0.00252098 2.80745e-19)
(52.0842 -0.00128309 -1.36288e-19)
(52.0852 -0.00108485 7.59684e-20)
(52.0861 -0.000966046 2.47582e-22)
(52.0871 -0.00092772 2.38295e-20)
(52.0882 -0.000946145 6.56393e-24)
(52.0895 -0.00100575 -3.83161e-24)
(52.091 -0.00109245 1.70762e-20)
(52.0927 -0.00118831 1.11352e-24)
(52.0948 -0.00126592 -1.34331e-24)
(52.0972 -0.00128126 -5.88179e-21)
(52.1001 -0.00116459 3.07774e-25)
(52.1033 -0.000809368 -3.23073e-21)
(52.107 -5.87994e-05 5.26029e-22)
(52.1108 0.00131098 2.46817e-21)
(52.1147 0.00361407 6.54251e-25)
(52.1184 0.00729225 -7.76361e-25)
(52.1215 0.0129821 0)
(52.1232 0.0216395 4.18997e-24)
(52.123 0.0347722 2.69499e-24)
(52.1195 0.054876 1.05759e-20)
(52.1111 0.0862493 0)
(52.0948 0.136894 -1.45981e-20)
(52.0659 0.220133 4.80724e-20)
(52.0147 0.368425 1.27321e-22)
(51.9342 0.606635 4.46352e-20)
(51.8279 0.932299 -4.43459e-20)
(51.699 1.34026 1.56975e-21)
(51.5549 1.81877 -4.75292e-21)
(51.4062 2.35185 3.31786e-21)
(51.265 2.92356 6.55665e-21)
(51.1426 3.51955 1.34363e-19)
(51.0483 4.12643 -1.04902e-19)
(50.9877 4.73078 -2.0142e-20)
(50.9626 5.31918 -8.09981e-20)
(50.9712 5.87893 1.45808e-19)
(51.0085 6.39933 4.91271e-20)
(51.0674 6.87288 0)
(51.1396 7.29584 5.6542e-22)
(51.2173 7.66828 5.67994e-20)
(51.2938 7.99351 0)
(51.3645 8.2772 -4.63354e-20)
(51.4269 8.52632 2.84188e-20)
(51.4812 8.74773 -3.55385e-20)
(51.5302 8.94575 0)
(51.5775 9.12894 -2.47457e-20)
(51.625 9.32773 0)
(51.694 9.41965 0)
(52.0832 -0.00259394 -1.4117e-19)
(52.0842 -0.00132797 1.37625e-19)
(52.0852 -0.00112726 -7.71821e-20)
(52.0861 -0.00100861 4.31451e-20)
(52.0871 -0.000972944 0)
(52.0882 -0.000996311 0)
(52.0895 -0.00106301 3.02604e-20)
(52.0909 -0.00115888 -1.70769e-20)
(52.0927 -0.0012658 0)
(52.0948 -0.00135587 -5.84914e-25)
(52.0972 -0.00138392 7.05196e-25)
(52.1001 -0.00127789 -5.5416e-21)
(52.1033 -0.000927026 3.23094e-21)
(52.107 -0.000167425 3.72387e-21)
(52.1108 0.0012362 -3.95312e-22)
(52.1148 0.00361553 0)
(52.1185 0.00743861 0)
(52.1216 0.0133811 2.10782e-24)
(52.1235 0.0224583 -2.45661e-24)
(52.1234 0.0362711 -1.10192e-20)
(52.1203 0.0574689 8.13031e-24)
(52.1124 0.0906141 0)
(52.0969 0.144189 2.88235e-20)
(52.0697 0.23234 -2.38506e-20)
(52.0216 0.389484 0)
(51.9464 0.641868 0)
(51.8478 0.986761 4.52188e-20)
(51.7293 1.4183 -8.31912e-20)
(51.5982 1.9234 -7.18457e-20)
(51.465 2.48418 0)
(51.342 3.08264 0)
(51.2405 3.70245 -3.04813e-22)
(51.1695 4.32852 1.32995e-19)
(51.1339 4.94618 -3.53549e-20)
(51.1346 5.54131 1.04501e-19)
(51.1685 6.10117 -7.2838e-22)
(51.2293 6.6157 -1.50184e-19)
(51.3089 7.0786 6.17219e-20)
(51.3982 7.48763 -1.31988e-19)
(51.4892 7.84438 4.98164e-19)
(51.5752 8.15353 -2.79459e-19)
(51.6521 8.42179 0)
(51.718 8.65678 -2.83595e-20)
(51.7738 8.86564 0)
(51.8229 9.05246 7.05109e-19)
(51.8696 9.22508 -7.58281e-19)
(51.9155 9.41867 0)
(51.986 9.48603 0)
(52.0832 -0.00266992 0)
(52.0842 -0.00137457 -6.91369e-20)
(52.0852 -0.00117118 -5.95513e-22)
(52.0861 -0.00105262 -8.58042e-20)
(52.0871 -0.00101968 -4.81258e-20)
(52.0882 -0.00104815 2.69445e-20)
(52.0895 -0.0011222 -3.02617e-20)
(52.0909 -0.0012276 -1.94538e-24)
(52.0927 -0.00134606 1.8243e-20)
(52.0948 -0.00144913 -9.74287e-21)
(52.0972 -0.00149046 -9.48601e-26)
(52.1001 -0.00139552 5.54104e-21)
(52.1034 -0.0010491 1.5637e-25)
(52.107 -0.000279697 2.67201e-21)
(52.1109 0.00116005 -2.07323e-21)
(52.1149 0.00362043 -2.74175e-21)
(52.1186 0.00759725 2.93225e-25)
(52.1218 0.0138073 0)
(52.1238 0.0233277 0)
(52.1239 0.0378562 1.10216e-20)
(52.1211 0.0602007 -7.78761e-24)
(52.1138 0.0951937 -4.24801e-23)
(52.0993 0.151809 -1.4254e-20)
(52.0739 0.245024 -2.31617e-20)
(52.0291 0.411235 2.21394e-22)
(51.9599 0.678048 -2.77492e-22)
(51.87 1.0424 -4.38107e-20)
(51.7629 1.49762 7.89579e-20)
(51.6461 2.02914 3.9059e-21)
(51.53 2.61703 5.03565e-20)
(51.4267 3.24108 1.03232e-19)
(51.3475 3.8829 -9.00789e-20)
(51.3008 4.52569 2.42248e-20)
(51.2908 5.15361 3.95397e-20)
(51.3172 5.75205 -1.53769e-19)
(51.3756 6.30855 -1.45948e-19)
(51.4584 6.814 8.85939e-20)
(51.5564 7.26353 2.5161e-19)
(51.6602 7.65658 0)
(51.7616 7.99634 -5.47509e-20)
(51.8544 8.28879 3.16789e-19)
(51.9349 8.54157 -3.03371e-19)
(52.0021 8.7628 -4.70307e-19)
(52.0574 8.9598 5.31263e-19)
(52.105 9.13629 -4.06023e-20)
(52.1498 9.29927 0)
(52.1929 9.48884 2.56345e-20)
(52.2637 9.53313 9.19881e-19)
(52.0832 -0.00274901 0)
(52.0843 -0.00142295 0)
(52.0852 -0.00121666 7.77676e-20)
(52.0861 -0.00109815 4.34091e-20)
(52.0871 -0.00106798 4.81288e-20)
(52.0882 -0.00110173 -7.34133e-24)
(52.0895 -0.00118342 0)
(52.0909 -0.00129875 0)
(52.0927 -0.00142924 -1.82403e-20)
(52.0948 -0.00154591 3.29237e-22)
(52.0972 -0.00160113 -9.56706e-21)
(52.1001 -0.0015178 -6.51978e-25)
(52.1034 -0.00117595 -2.20041e-21)
(52.107 -0.000396035 -5.25548e-22)
(52.1109 0.00108218 0)
(52.1149 0.00362856 5.85122e-22)
(52.1188 0.00776815 3.69931e-25)
(52.122 0.0142608 -5.08022e-25)
(52.1242 0.0242482 -3.51534e-24)
(52.1245 0.0395281 1.0637e-23)
(52.122 0.0630709 -7.44115e-24)
(52.1153 0.0999852 1.59851e-20)
(52.102 0.159743 -1.36829e-20)
(52.0786 0.258157 2.96648e-22)
(52.0375 0.433611 -1.95407e-20)
(51.9749 0.715034 -4.32273e-20)
(51.8946 1.09895 -1.37158e-21)
(51.8002 1.57778 -3.83339e-20)
(51.6991 2.13532 0)
(51.6016 2.7495 -1.1708e-19)
(51.5194 3.39772 -7.97032e-20)
(51.4637 4.05947 -1.61392e-20)
(51.4422 4.71626 1.02121e-19)
(51.4581 5.35127 -3.90301e-20)
(51.5097 5.94964 -5.28194e-20)
(51.5913 6.4995 -1.42566e-19)
(51.694 6.99299 -1.01417e-19)
(51.808 7.42694 5.8603e-20)
(51.9235 7.80255 1.67574e-19)
(52.0326 8.12459 -4.2393e-19)
(52.1296 8.40023 2.32618e-19)
(52.2114 8.63789 3.03636e-19)
(52.2779 8.84606 -3.42328e-19)
(52.3312 9.03207 -5.26826e-19)
(52.3761 9.19924 6.57056e-19)
(52.4179 9.35357 2.22823e-20)
(52.4575 9.5402 -2.55924e-20)
(52.5274 9.56295 -8.93285e-19)
(52.0832 -0.00283131 -1.47567e-19)
(52.0843 -0.00147318 3.57047e-23)
(52.0852 -0.00126377 -1.99368e-23)
(52.0861 -0.00114524 -1.30699e-19)
(52.0871 -0.00111792 4.84381e-20)
(52.0882 -0.00115713 -2.693e-20)
(52.0895 -0.00124677 -3.25341e-25)
(52.0909 -0.00137244 -2.29888e-24)
(52.0927 -0.0015155 -2.27236e-24)
(52.0948 -0.00164641 3.28706e-22)
(52.0972 -0.0017162 1.85883e-20)
(52.1001 -0.00164505 4.6908e-25)
(52.1034 -0.00130797 5.91471e-21)
(52.107 -0.000516878 -5.25191e-22)
(52.111 0.00100212 2.98333e-26)
(52.115 0.00363966 3.7278e-21)
(52.1189 0.0079513 -1.83215e-21)
(52.1222 0.0147419 0)
(52.1245 0.0252199 -1.64354e-24)
(52.1251 0.0412863 1.88871e-24)
(52.1231 0.0660777 -8.68839e-21)
(52.117 0.104983 -5.1899e-22)
(52.1049 0.167976 1.36666e-20)
(52.0837 0.271704 2.27608e-20)
(52.0467 0.456529 3.90505e-20)
(51.9914 0.752654 6.37074e-20)
(51.9217 1.15611 8.75979e-20)
(51.8414 1.65829 8.06326e-20)
(51.7575 2.24124 5.17232e-21)
(51.68 2.88058 5.18163e-20)
(51.6204 3.55128 -1.27511e-20)
(51.5893 4.23062 3.49093e-20)
(51.5935 4.89855 -9.83693e-20)
(51.6351 5.53741 -3.41743e-20)
(51.7111 6.13244 1.0144e-19)
(51.8142 6.67268 1.2407e-21)
(51.9346 7.1518 0)
(52.0619 7.56848 -6.04191e-20)
(52.1865 7.92573 0)
(52.3006 8.22981 -2.10226e-19)
(52.3993 8.48896 -7.88063e-21)
(52.4806 8.71218 6.24868e-19)
(52.5448 8.90819 -4.11468e-19)
(52.5948 9.0842 -5.11171e-19)
(52.636 9.24309 -4.7995e-20)
(52.6742 9.38977 6.73953e-19)
(52.7096 9.57442 0)
(52.7781 9.57714 8.38602e-19)
(52.0832 -0.00291691 2.96665e-19)
(52.0843 -0.00152532 0)
(52.0852 -0.00131255 -7.95749e-20)
(52.0861 -0.00119396 1.31204e-19)
(52.0871 -0.00116957 -4.8441e-20)
(52.0882 -0.00121444 2.69179e-20)
(52.0895 -0.00131233 3.77909e-24)
(52.0909 -0.0014488 -1.61297e-20)
(52.0927 -0.00160499 -2.94281e-25)
(52.0948 -0.00175082 9.08169e-21)
(52.0972 -0.00183592 -9.01944e-21)
(52.1001 -0.00177761 0)
(52.1034 -0.00144557 -3.71449e-21)
(52.107 -0.000642681 -1.62176e-21)
(52.111 0.000919398 9.83114e-22)
(52.1151 0.00365325 -2.55587e-21)
(52.119 0.00814665 4.2725e-22)
(52.1225 0.0152508 -9.07382e-26)
(52.1249 0.0262433 8.69958e-25)
(52.1258 0.0431304 8.69981e-21)
(52.1242 0.0692179 1.6982e-20)
(52.1189 0.110177 -1.54403e-20)
(52.1081 0.176488 1.29603e-20)
(52.0893 0.285616 -2.1979e-20)
(52.0569 0.479887 -1.92708e-20)
(52.0096 0.790705 -2.86022e-22)
(51.9516 1.21352 -4.30263e-20)
(51.8866 1.73859 -3.70898e-20)
(51.8214 2.34609 -3.8085e-21)
(51.7655 3.00922 -8.19899e-21)
(51.7298 3.70041 1.02709e-20)
(51.7242 4.39481 0)
(51.7545 5.07086 -1.25959e-19)
(51.8214 5.71038 1.04037e-19)
(51.9205 6.29901 0)
(52.0432 6.827 6.79611e-20)
(52.1787 7.28982 -9.31486e-20)
(52.3166 7.68807 1.17609e-19)
(52.4474 8.02655 0)
(52.5641 8.31289 -2.04141e-19)
(52.6626 8.55618 3.15401e-19)
(52.7415 8.76586 1.20985e-21)
(52.8022 8.95072 -5.09558e-20)
(52.8481 9.11776 0)
(52.8849 9.26941 -5.90205e-19)
(52.919 9.40939 6.7375e-19)
(52.95 9.59287 -7.61425e-19)
(53.0166 9.57704 8.01192e-19)
(52.0832 -0.00300592 -1.49132e-19)
(52.0843 -0.00157944 0)
(52.0852 -0.00136308 1.59758e-19)
(52.0861 -0.00124437 -1.32208e-19)
(52.0871 -0.00122299 0)
(52.0882 -0.00127373 -6.17675e-24)
(52.0894 -0.00138021 -2.95269e-20)
(52.0909 -0.00152794 3.20799e-20)
(52.0927 -0.00169788 -2.51106e-24)