/*--------------------------------*- C++ -*----------------------------------*\
| =========                 |                                                 |
| \\      /  F ield         | OpenFOAM: The Open Source CFD Toolbox           |
|  \\    /   O peration     | Version:  2406                                  |
|   \\  /    A nd           | Website:  www.openfoam.com                      |
|    \\/     M anipulation  |                                                 |
\*---------------------------------------------------------------------------*/
FoamFile
{
    version     2.0;
    format      ascii;
    arch        "LSB;label=32;scalar=64";
    class       volScalarField;
    location    "2.64e-05";
    object      O2;
}
// * * * * * * * * * * * * * * * * * * * * * * * * * * * * * * * * * * * * * //

dimensions      [0 0 0 0 0 0 0];

internalField   nonuniform List<scalar> 
4000
(
4.07566e-94
4.20967e-93
3.7081e-92
3.19941e-91
2.75132e-90
2.36439e-89
2.0315e-88
1.74538e-87
1.49954e-86
1.28832e-85
1.10687e-84
9.50986e-84
8.17065e-83
7.02013e-82
6.0317e-81
5.18162e-80
4.45206e-79
3.82521e-78
3.28633e-77
2.82374e-76
2.42617e-75
2.08466e-74
1.79138e-73
1.53938e-72
1.32277e-71
1.13668e-70
9.76756e-70
8.39303e-69
7.21182e-68
6.19671e-67
5.32432e-66
4.5746e-65
3.93018e-64
3.37634e-63
2.90041e-62
2.49139e-61
2.13988e-60
1.83781e-59
1.57828e-58
1.35527e-57
1.16367e-56
9.99052e-56
8.57622e-55
7.36129e-54
6.31762e-53
5.42115e-52
4.65125e-51
3.99014e-50
3.42256e-49
2.93533e-48
2.51713e-47
2.15825e-46
1.85031e-45
1.58612e-44
1.35946e-43
1.16509e-42
9.98403e-42
8.55458e-41
7.32891e-40
6.27809e-39
5.37727e-38
4.60513e-37
3.94328e-36
3.37636e-35
2.89063e-34
2.47443e-33
2.11793e-32
1.81252e-31
1.55086e-30
1.3269e-29
1.13511e-28
9.70836e-28
8.30197e-27
7.09791e-26
6.06711e-25
5.18468e-24
4.42925e-23
3.78181e-22
3.22802e-21
2.75363e-20
2.34752e-19
1.99951e-18
1.70165e-17
1.4464e-16
1.22744e-15
1.04016e-14
8.79591e-14
7.4191e-13
6.23837e-12
5.22553e-11
4.35643e-10
3.61042e-09
2.96905e-08
2.41869e-07
1.9456e-06
1.53849e-05
0.000118714
0.000882514
0.00615271
0.0383364
6.83503e-94
7.19706e-93
6.44562e-92
5.65817e-91
4.94018e-90
4.30143e-89
3.73826e-88
3.24432e-87
2.81266e-86
2.4364e-85
2.10906e-84
1.8247e-83
1.57796e-82
1.36388e-81
1.17845e-80
1.01815e-79
8.79358e-79
7.59314e-78
6.54728e-77
5.6453e-76
4.86686e-75
4.19541e-74
3.61636e-73
3.11702e-72
2.6885e-71
2.31675e-70
1.99774e-69
1.72136e-68
1.48322e-67
1.2779e-66
1.10093e-65
9.48362e-65
8.17195e-64
7.04054e-63
6.06505e-62
5.22279e-61
4.49831e-60
3.87302e-59
3.33442e-58
2.87047e-57
2.47109e-56
2.12699e-55
1.83057e-54
1.57526e-53
1.35518e-52
1.16537e-51
1.00185e-50
8.60874e-50
7.39563e-49
6.35118e-48
5.4513e-47
4.67827e-46
4.0123e-45
3.44093e-44
2.94889e-43
2.52631e-42
2.16429e-41
1.85339e-40
1.58654e-39
1.35764e-38
1.16134e-37
9.9248e-37
8.4781e-36
7.23867e-35
6.18198e-34
5.27267e-33
4.49853e-32
3.83245e-31
3.26341e-30
2.77719e-29
2.36418e-28
2.00887e-27
1.70591e-26
1.44737e-25
1.22686e-24
1.03899e-23
8.80311e-23
7.43867e-22
6.28891e-21
5.30004e-20
4.46064e-19
3.75499e-18
3.155e-17
2.64525e-16
2.20674e-15
1.84084e-14
1.53032e-13
1.26705e-12
1.0442e-11
8.5572e-11
6.96466e-10
5.62117e-09
4.48914e-08
3.53504e-07
2.73342e-06
2.06193e-05
0.000150241
0.00104022
0.00665984
0.0386106
1.04052e-93
1.1039e-92
9.95858e-92
8.81864e-91
7.7701e-90
6.8265e-89
5.98404e-88
5.23584e-87
4.57411e-86
3.99081e-85
3.47805e-84
3.0283e-83
2.63429e-82
2.29008e-81
1.98959e-80
1.72758e-79
1.4992e-78
1.30053e-77
1.12773e-76
9.77528e-76
8.45763e-75
7.31451e-74
6.3252e-73
5.4684e-72
4.7339e-71
4.09118e-70
3.53551e-69
3.05492e-68
2.64213e-67
2.2823e-66
1.9732e-65
1.70417e-64
1.47281e-63
1.27257e-62
1.09875e-61
9.48593e-61
8.18936e-60
7.06845e-59
6.10034e-58
5.26422e-57
4.54217e-56
3.9187e-55
3.38037e-54
2.91563e-53
2.51373e-52
2.16568e-51
1.86462e-50
1.6047e-49
1.38018e-48
1.186e-47
1.01889e-46
8.74775e-46
7.50219e-45
6.42996e-44
5.50722e-43
4.71365e-42
4.03451e-41
3.45066e-40
2.94676e-39
2.51472e-38
2.14422e-37
1.82878e-36
1.55845e-35
1.32539e-34
1.12784e-33
9.5884e-33
8.14488e-32
6.90122e-31
5.84215e-30
4.94886e-29
4.18684e-28
3.53056e-27
2.98046e-26
2.51252e-25
2.11002e-24
1.76955e-23
1.48121e-22
1.24122e-21
1.03524e-20
8.6124e-20
7.17359e-19
5.93595e-18
4.91798e-17
4.06093e-16
3.32531e-15
2.72656e-14
2.22391e-13
1.80437e-12
1.45484e-11
1.1644e-10
9.23799e-10
7.25123e-09
5.61842e-08
4.28402e-07
3.20035e-06
2.32821e-05
0.000163461
0.00109206
0.0067824
0.0386558
1.49525e-93
1.59264e-92
1.44261e-91
1.28391e-90
1.13757e-89
1.0053e-88
8.86508e-88
7.80285e-87
6.85651e-86
6.01612e-85
5.27189e-84
4.61441e-83
4.03508e-82
3.52525e-81
3.07731e-80
2.68411e-79
2.33972e-78
2.03815e-77
1.77445e-76
1.53956e-75
1.33944e-74
1.16141e-73
1.00958e-72
8.75129e-72
7.58543e-71
6.58647e-70
5.70621e-69
4.9433e-68
4.2814e-67
3.70749e-66
3.21e-65
2.78209e-64
2.40785e-63
2.08387e-62
1.80477e-61
1.56142e-60
1.35166e-59
1.16911e-58
1.01113e-57
8.74358e-57
7.5599e-56
6.53689e-55
5.65026e-54
4.88332e-53
4.218e-52
3.64019e-51
3.13826e-50
2.70315e-49
2.32624e-48
2.00024e-47
1.71919e-46
1.4754e-45
1.26504e-44
1.08366e-43
9.274e-43
7.93683e-42
6.78602e-41
5.7899e-40
4.9354e-39
4.2083e-38
3.58448e-37
3.04514e-36
2.58431e-35
2.19055e-34
1.85431e-33
1.56748e-32
1.32319e-31
1.11524e-30
9.40858e-30
7.92392e-29
6.66392e-28
5.57804e-27
4.66172e-26
3.88805e-25
3.23578e-24
2.69715e-23
2.23359e-22
1.84527e-21
1.52014e-20
1.24846e-19
1.02192e-18
8.37982e-18
6.80452e-17
5.53823e-16
4.4549e-15
3.59176e-14
2.87744e-13
2.29043e-12
1.8098e-11
1.41813e-10
1.10044e-09
8.44171e-09
6.38831e-08
4.75564e-07
3.46955e-06
2.4673e-05
0.00016966
0.00111372
0.00682786
0.0386706
2.05192e-93
2.19103e-92
1.98981e-91
1.77658e-90
1.57977e-89
1.40156e-88
1.24104e-87
1.09691e-86
9.67996e-86
8.52974e-85
7.50565e-84
6.59678e-83
5.7915e-82
5.07934e-81
4.45059e-80
3.89614e-79
3.40825e-78
2.9793e-77
2.59173e-76
2.26353e-75
1.97501e-74
1.71653e-73
1.49182e-72
1.29995e-71
1.12884e-70
9.80312e-70
8.53104e-69
7.4201e-68
6.43875e-67
5.58693e-66
4.84695e-65
4.20398e-64
3.64542e-63
3.16038e-62
2.73928e-61
2.37612e-60
2.05853e-59
1.78457e-58
1.54651e-57
1.33933e-56
1.16011e-55
1.00457e-54
8.69666e-54
7.52651e-53
6.50881e-52
5.62149e-51
4.84949e-50
4.18034e-49
3.59774e-48
3.09284e-47
2.65561e-46
2.27942e-45
1.9524e-44
1.67034e-43
1.42894e-42
1.21932e-41
1.03923e-40
8.84557e-40
7.53181e-39
6.39265e-38
5.42076e-37
4.58814e-36
3.87768e-35
3.27977e-34
2.76931e-33
2.32828e-32
1.96028e-31
1.6474e-30
1.38221e-29
1.15353e-28
9.64515e-28
8.01509e-27
6.64653e-26
5.49811e-25
4.53548e-24
3.73101e-23
3.07524e-22
2.51237e-21
2.04661e-20
1.6611e-19
1.34289e-18
1.08075e-17
8.65692e-17
6.95071e-16
5.50261e-15
4.37098e-14
3.44726e-13
2.6998e-12
2.09807e-11
1.61611e-10
1.23243e-09
9.29158e-09
6.91189e-08
5.06057e-07
3.63436e-06
2.54783e-05
0.000173057
0.00112499
0.00685051
0.0386776
2.70191e-93
2.88987e-92
2.62899e-91
2.35216e-90
2.09655e-89
1.86487e-88
1.65586e-87
1.46784e-86
1.29912e-85
1.14817e-84
1.01346e-83
8.93346e-83
7.8658e-82
6.91822e-81
6.07837e-80
5.33587e-79
4.67973e-78
4.10089e-77
3.57313e-76
3.12751e-75
2.73467e-74
2.38992e-73
2.0796e-72
1.81603e-71
1.57926e-70
1.37341e-69
1.19406e-68
1.04041e-67
9.05947e-67
7.86786e-66
6.84676e-65
5.95496e-64
5.17766e-63
4.50043e-62
3.9104e-61
3.39672e-60
2.94641e-59
2.55781e-58
2.2179e-57
1.92412e-56
1.66799e-55
1.44561e-54
1.25264e-53
1.08528e-52
9.39203e-52
8.11785e-51
7.0049e-50
6.03907e-49
5.19675e-48
4.46871e-47
3.83406e-46
3.28495e-45
2.81368e-44
2.40652e-43
2.05243e-42
1.74797e-41
1.48634e-40
1.26185e-39
1.06951e-38
9.04881e-38
7.64209e-37
6.44196e-36
5.43526e-35
4.5771e-34
3.84734e-33
3.2174e-32
2.68539e-31
2.23601e-30
1.86479e-29
1.54478e-28
1.27692e-27
1.0574e-26
8.68801e-26
7.15663e-25
5.84415e-24
4.78685e-23
3.90687e-22
3.15778e-21
2.54339e-20
2.0395e-19
1.64052e-18
1.30262e-17
1.03855e-16
8.23336e-16
6.42984e-15
5.04378e-14
3.92636e-13
3.03451e-12
2.32669e-11
1.76836e-10
1.33084e-09
9.90398e-09
7.27609e-08
5.2654e-07
3.7414e-06
2.59847e-05
0.000175131
0.00113171
0.00686378
0.0386814
3.43529e-93
3.67906e-92
3.35162e-91
3.00371e-90
2.6823e-89
2.3908e-88
2.12755e-87
1.8905e-86
1.67746e-85
1.48634e-84
1.3153e-83
1.16261e-82
1.02644e-81
9.05248e-81
7.97593e-80
7.02031e-79
6.17369e-78
5.42476e-77
4.76295e-76
4.15721e-75
3.62889e-74
3.1805e-73
2.77251e-72
2.42653e-71
2.11369e-70
1.84113e-69
1.60845e-68
1.3998e-67
1.22162e-66
1.06258e-65
9.24254e-65
8.0366e-64
6.98615e-63
6.08205e-62
5.28347e-61
4.59576e-60
3.99537e-59
3.46853e-58
3.01072e-57
2.61276e-56
2.26805e-55
1.968e-54
1.70705e-53
1.4801e-52
1.28164e-51
1.1082e-50
9.56781e-50
8.24822e-49
7.0947e-48
6.09257e-47
5.22877e-46
4.47478e-45
3.8287e-44
3.2703e-43
2.78401e-42
2.36617e-41
2.00736e-40
1.69968e-39
1.43991e-38
1.21747e-37
1.02751e-36
8.63036e-36
7.23553e-35
6.07335e-34
5.06754e-33
4.23596e-32
3.53172e-31
2.92511e-30
2.41733e-29
1.99211e-28
1.64532e-27
1.34724e-26
1.10631e-25
8.99855e-25
7.29774e-24
5.89688e-23
4.74619e-22
3.83143e-21
3.07938e-20
2.44536e-19
1.93418e-18
1.52194e-17
1.1911e-16
9.35669e-16
7.22458e-15
5.60866e-14
4.32017e-13
3.30368e-12
2.50658e-11
1.88538e-10
1.40461e-09
1.03524e-08
7.5369e-08
5.40868e-07
3.81468e-06
2.63248e-05
0.000176501
0.00113609
0.00687231
0.0386837
4.21624e-93
4.51865e-92
4.11924e-91
3.69473e-90
3.30271e-89
2.94708e-88
2.62577e-87
2.33613e-86
2.07555e-85
1.8416e-84
1.63193e-83
1.44434e-82
1.2768e-81
1.12747e-80
9.94555e-80
8.76449e-79
7.71628e-78
6.78704e-77
5.96448e-76
5.20808e-75
4.57208e-74
4.00867e-73
3.51259e-72
3.07632e-71
2.69241e-70
2.34622e-69
2.05201e-68
1.78716e-67
1.56136e-66
1.35914e-65
1.18611e-64
1.03193e-63
8.9777e-63
7.82372e-62
6.80185e-61
5.92225e-60
5.15326e-59
4.48237e-58
3.89358e-57
3.38428e-56
2.93841e-55
2.55087e-54
2.21393e-53
1.92105e-52
1.66429e-51
1.43909e-50
1.24206e-49
1.07002e-48
9.20885e-48
7.90339e-47
6.77066e-46
5.78924e-45
4.94846e-44
4.22169e-43
3.58812e-42
3.04392e-41
2.58291e-40
2.18168e-39
1.84017e-38
1.55238e-37
1.30256e-36
1.09062e-35
9.11012e-35
7.59124e-34
6.30935e-33
5.25245e-32
4.35989e-31
3.59262e-30
2.95312e-29
2.42206e-28
1.98961e-27
1.62864e-26
1.32906e-25
1.07384e-24
8.64982e-24
6.94028e-23
5.58871e-22
4.44327e-21
3.51842e-20
2.77195e-19
2.17239e-18
1.6935e-17
1.32633e-16
1.03206e-15
7.89442e-15
6.07694e-14
4.64101e-13
3.51912e-12
2.64791e-11
1.97574e-10
1.46064e-09
1.06874e-08
7.72837e-08
5.51236e-07
3.86695e-06
2.65643e-05
0.000177455
0.00113911
0.00687815
0.0386852
5.07212e-93
5.4408e-92
4.96485e-91
4.45813e-90
3.98993e-89
3.56508e-88
3.18099e-87
2.83442e-86
2.52234e-85
2.2418e-84
1.99007e-83
1.76457e-82
1.56293e-81
1.38282e-80
1.22222e-79
1.07921e-78
9.52048e-78
8.39118e-77
7.3411e-76
6.46325e-75
5.68366e-74
4.96698e-73
4.34054e-72
3.80923e-71
3.32439e-70
2.90139e-69
2.53104e-68
2.20709e-67
1.92393e-66
1.68174e-65
1.46456e-64
1.27539e-63
1.11025e-62
9.66211e-62
8.40541e-61
7.32259e-60
6.36577e-59
5.53303e-58
4.81277e-57
4.18392e-56
3.63329e-55
3.15446e-54
2.73802e-53
2.37596e-52
2.05825e-51
1.77897e-50
1.5344e-49
1.32073e-48
1.13445e-47
9.73533e-47
8.32648e-46
7.10703e-45
6.06388e-44
5.16307e-43
4.38746e-42
3.72084e-41
3.14105e-40
2.64587e-39
2.23015e-38
1.86897e-37
1.56819e-36
1.30746e-35
1.08752e-34
9.02068e-34
7.49445e-33
6.20841e-32
5.10381e-31
4.18804e-30
3.4417e-29
2.80252e-28
2.28983e-27
1.86371e-26
1.51201e-25
1.21359e-24
9.70939e-24
7.73611e-23
6.18764e-22
4.92432e-21
3.9024e-20
3.07891e-19
2.39394e-18
1.85284e-17
1.44133e-16
1.1137e-15
8.45412e-15
6.46307e-14
4.90196e-13
3.69193e-12
2.75979e-11
2.04629e-10
1.50379e-09
1.09419e-08
7.87217e-08
5.5893e-07
3.9054e-06
2.67388e-05
0.000178145
0.00114128
0.00688233
0.0386861
5.92557e-93
6.35917e-92
5.80559e-91
5.21609e-90
4.67134e-89
4.17691e-88
3.7297e-87
3.32613e-86
2.96252e-85
2.63546e-84
2.34178e-83
2.07844e-82
1.84265e-81
1.63191e-80
1.44379e-79
1.27612e-78
1.12683e-77
9.94097e-77
8.70166e-76
7.61732e-75
6.70573e-74
5.89565e-73
5.18046e-72
4.52564e-71
3.9534e-70
3.46732e-69
3.02501e-68
2.63898e-67
2.30117e-66
2.01259e-65
1.7531e-64
1.53133e-63
1.33308e-62
1.16311e-61
1.01192e-60
8.80305e-60
7.66769e-59
6.67428e-58
5.80686e-57
5.04507e-56
4.38529e-55
3.80783e-54
3.30566e-53
2.86894e-52
2.48446e-51
2.14749e-50
1.85235e-49
1.59316e-48
1.36724e-47
1.17214e-46
1.00265e-45
8.54455e-45
7.26549e-44
6.16272e-43
5.22706e-42
4.41107e-41
3.72453e-40
3.13704e-39
2.63602e-38
2.20964e-37
1.84772e-36
1.54113e-35
1.28213e-34
1.06396e-33
8.76406e-33
7.1986e-32
5.92504e-31
4.83266e-30
3.9307e-29
3.18492e-28
2.58853e-27
2.08076e-26
1.67953e-25
1.33938e-24
1.06433e-23
8.49043e-23
6.74095e-22
5.32976e-21
4.19593e-20
3.28861e-19
2.56553e-18
1.99211e-17
1.53886e-16
1.18218e-15
8.91708e-15
6.77901e-14
5.11317e-13
3.83033e-12
2.84844e-11
2.10166e-10
1.53736e-09
1.11382e-08
7.98225e-08
5.64775e-07
3.93431e-06
2.68692e-05
0.000178658
0.00114288
0.00688539
0.0386868
6.78199e-93
7.28103e-92
6.64985e-91
5.9774e-90
5.35596e-89
4.79185e-88
4.2816e-87
3.82093e-86
3.4057e-85
3.03203e-84
2.69622e-83
2.39499e-82
2.12511e-81
1.88368e-80
1.66799e-79
1.47553e-78
1.30405e-77
1.15144e-76
1.01579e-75
8.89318e-75
7.78635e-74
6.81242e-73
5.99052e-72
5.26128e-71
4.6182e-70
4.05106e-69
3.55137e-68
3.11181e-67
2.71451e-66
2.37643e-65
2.07161e-64
1.81113e-63
1.5778e-62
1.37786e-61
1.19966e-60
1.04437e-59
9.10389e-59
7.91855e-58
6.88649e-57
5.99281e-56
5.21195e-55
4.52833e-54
3.93345e-53
3.41579e-52
2.95902e-51
2.55822e-50
2.20539e-49
1.89672e-48
1.6292e-47
1.39626e-46
1.1921e-45
1.01726e-44
8.65984e-44
7.33887e-43
6.22056e-42
5.24454e-41
4.41123e-40
3.71261e-39
3.11603e-38
2.60888e-37
2.17866e-36
1.8146e-35
1.50051e-34
1.23744e-33
1.02239e-32
8.41931e-32
6.87297e-31
5.59459e-30
4.56729e-29
3.69003e-28
2.97177e-27
2.38364e-26
1.90397e-25
1.52696e-24
1.21892e-23
9.60633e-23
7.54269e-22
5.89287e-21
4.58084e-20
3.54244e-19
2.72473e-18
2.10796e-17
1.62068e-16
1.23917e-15
9.29983e-15
7.03815e-14
5.28506e-13
3.94206e-12
2.91947e-11
2.1456e-10
1.56373e-09
1.12914e-08
8.06733e-08
5.69269e-07
3.95649e-06
2.69689e-05
0.000179048
0.0011441
0.0068877
0.0386872
7.63418e-93
8.19852e-92
7.49151e-91
6.73666e-90
6.03901e-89
5.40565e-88
4.83264e-87
4.31517e-86
3.84859e-85
3.42854e-84
3.05093e-83
2.71197e-82
2.40812e-81
2.13612e-80
1.89296e-79
1.67585e-78
1.48226e-77
1.30983e-76
1.15652e-75
1.02021e-74
8.99457e-74
7.92422e-73
6.93488e-72
6.06893e-71
5.33599e-70
4.66236e-69
4.07392e-68
3.57333e-67
3.1185e-66
2.73177e-65
2.39058e-64
2.08416e-63
1.81683e-62
1.58324e-61
1.38237e-60
1.20595e-59
1.05148e-58
9.14879e-58
7.9587e-57
6.92092e-56
6.01622e-55
5.23053e-54
4.54349e-53
3.94538e-52
3.41682e-51
2.9529e-50
2.54588e-49
2.18779e-48
1.87532e-47
1.60333e-46
1.3695e-45
1.16686e-44
9.89632e-44
8.3929e-43
7.0988e-42
5.97134e-41
5.0105e-40
4.2069e-39
3.50854e-38
2.92995e-37
2.43933e-36
2.01596e-35
1.6696e-34
1.37817e-33
1.13438e-32
9.30764e-32
7.56628e-31
6.13257e-30
4.95244e-29
4.01209e-28
3.23734e-27
2.60318e-26
2.06901e-25
1.6529e-24
1.31424e-23
1.03127e-22
8.13963e-22
6.32791e-21
4.89957e-20
3.77466e-19
2.89207e-18
2.20341e-17
1.68916e-16
1.28653e-15
9.61483e-15
7.24958e-14
5.42405e-13
4.03174e-12
2.97606e-11
2.18046e-10
1.5846e-09
1.14117e-08
8.134e-08
5.72766e-07
3.97365e-06
2.70457e-05
0.000179348
0.00114503
0.00688946
0.0386875
8.46509e-93
9.09332e-92
8.30785e-91
7.47348e-90
6.70173e-89
6.00126e-88
5.36717e-87
4.79439e-86
4.27779e-85
3.81253e-84
3.39412e-83
3.01836e-82
2.68137e-81
2.37955e-80
2.10958e-79
1.86841e-78
1.65322e-77
1.46144e-76
1.29073e-75
1.13068e-74
9.97482e-74
8.78738e-73
7.73588e-72
6.80624e-71
5.98467e-70
5.23654e-69
4.5812e-68
4.00615e-67
3.49868e-66
3.06628e-65
2.6845e-64
2.3425e-63
2.04279e-62
1.78085e-61
1.55565e-60
1.35782e-59
1.18444e-58
1.03263e-57
8.99805e-57
7.83653e-56
6.82135e-55
5.93454e-54
5.16013e-53
4.48434e-52
3.88577e-51
3.35992e-50
2.89601e-49
2.48963e-48
2.13465e-47
1.8254e-46
1.55682e-45
1.32416e-44
1.12314e-43
9.52434e-43
8.03191e-42
6.75599e-41
5.66607e-40
4.73806e-39
3.96549e-38
3.29501e-37
2.73041e-36
2.2552e-35
1.85677e-34
1.52349e-33
1.25278e-32
1.02635e-31
8.3281e-31
6.73771e-30
5.43088e-29
4.3603e-28
3.48614e-27
2.77578e-26
2.20036e-25
1.73684e-24
1.36447e-23
1.07698e-22
8.37265e-22
6.551e-21
5.04366e-20
3.91041e-19
3.01386e-18
2.31208e-17
1.74314e-16
1.32533e-15
9.87175e-15
7.42134e-14
5.53657e-13
4.10397e-12
3.02143e-11
2.20824e-10
1.60111e-09
1.15067e-08
8.18636e-08
5.7551e-07
3.98709e-06
2.71056e-05
0.000179581
0.00114576
0.00689082
0.0386877
9.25442e-93
9.94574e-92
9.09317e-91
8.18293e-90
7.34255e-89
6.57867e-88
5.88779e-87
5.26347e-86
4.70013e-85
4.19253e-84
3.7358e-83
3.32537e-82
2.95705e-81
2.62694e-80
2.33159e-79
2.0674e-78
1.83148e-77
1.62104e-76
1.43328e-75
1.25704e-74
1.10265e-73
9.66693e-73
8.46915e-72
7.45909e-71
6.52357e-70
5.73648e-69
5.01443e-68
4.40354e-67
3.84646e-66
3.36003e-65
2.94431e-64
2.56863e-63
2.24062e-62
1.95376e-61
1.70298e-60
1.48694e-59
1.29473e-58
1.12716e-57
9.80867e-57
8.53211e-56
7.41913e-55
6.45184e-54
5.60528e-53
4.86793e-52
4.21435e-51
3.64035e-50
3.1338e-49
2.6903e-48
2.30312e-47
1.9661e-46
1.67357e-45
1.42356e-44
1.20755e-43
1.01891e-42
8.57371e-42
7.21632e-41
6.05586e-40
5.06823e-39
4.21242e-38
3.49091e-37
2.89694e-36
2.38412e-35
1.96678e-34
1.61668e-33
1.32468e-32
1.08198e-31
8.75113e-31
7.05614e-30
5.70886e-29
4.59996e-28
3.66378e-27
2.93237e-26
2.31597e-25
1.83907e-24
1.45352e-23
1.14434e-22
8.87854e-22
6.86339e-21
5.33752e-20
4.12721e-19
3.13901e-18
2.37672e-17
1.78938e-16
1.35704e-15
1.00804e-14
7.56018e-14
5.62705e-13
4.16181e-12
3.05759e-11
2.2303e-10
1.61419e-09
1.15816e-08
8.22757e-08
5.77661e-07
3.99758e-06
2.71524e-05
0.000179763
0.00114632
0.00689187
0.0386878
9.86255e-93
1.05986e-91
9.68975e-91
8.72011e-90
7.82392e-89
7.00973e-88
6.27277e-87
5.60683e-86
5.00594e-85
4.46451e-84
3.97742e-83
3.53963e-82
3.14675e-81
2.79462e-80
2.47902e-79
2.19723e-78
1.9456e-77
1.72116e-76
1.52121e-75
1.3435e-74
1.17733e-73
1.03882e-72
9.15305e-72
8.01111e-71
7.0121e-70
6.13375e-69
5.3626e-68
4.70866e-67
4.11108e-66
3.60382e-65
3.15596e-64
2.76218e-63
2.41003e-62
2.10128e-61
1.8361e-60
1.60303e-59
1.39598e-58
1.2175e-57
1.06099e-56
9.24047e-56
8.04209e-55
6.99576e-54
6.08163e-53
5.28214e-52
4.57379e-51
3.95143e-50
3.40493e-49
2.92297e-48
2.50227e-47
2.13955e-46
1.82086e-45
1.5454e-44
1.30772e-43
1.10328e-42
9.28016e-42
7.78234e-41
6.50592e-40
5.44261e-39
4.53816e-38
3.77339e-37
3.1135e-36
2.56148e-35
2.11157e-34
1.73413e-33
1.41093e-32
1.14441e-31
9.2474e-31
7.44321e-30
5.96796e-29
4.80211e-28
3.84659e-27
3.07023e-26
2.44132e-25
1.91623e-24
1.49861e-23
1.17807e-22
9.11531e-22
7.0254e-21
5.44922e-20
4.1527e-19
3.19e-18
2.40518e-17
1.82956e-16
1.38266e-15
1.02482e-14
7.67131e-14
5.69924e-13
4.20778e-12
3.08625e-11
2.24774e-10
1.6245e-09
1.16405e-08
8.25984e-08
5.79342e-07
4.00577e-06
2.71888e-05
0.000179904
0.00114675
0.00689269
0.0386879
1.04439e-92
1.12284e-91
1.0271e-90
9.24862e-90
8.30199e-89
7.44294e-88
6.66511e-87
5.96196e-86
5.32723e-85
4.75503e-84
4.23963e-83
3.77649e-82
3.3606e-81
2.98762e-80
2.65352e-79
2.3546e-78
2.08746e-77
1.84903e-76
1.62328e-75
1.42518e-74
1.25969e-73
1.11179e-72
9.74189e-72
8.53617e-71
7.51925e-70
6.57838e-69
5.75522e-68
5.057e-67
4.41847e-66
3.86102e-65
3.37205e-64
2.94367e-63
2.57677e-62
2.24701e-61
1.95928e-60
1.70763e-59
1.49058e-58
1.30001e-57
1.13308e-56
9.85861e-56
8.58318e-55
7.46706e-54
6.49233e-53
5.63948e-52
4.88311e-51
4.21589e-50
3.63203e-49
3.11705e-48
2.66746e-47
2.27591e-46
1.93602e-45
1.64197e-44
1.38837e-43
1.17031e-42
9.83431e-42
8.23744e-41
6.90388e-40
5.76802e-39
4.78406e-38
3.95589e-37
3.2599e-36
2.69132e-35
2.2137e-34
1.81494e-33
1.47402e-32
1.19348e-31
9.69231e-31
7.78209e-30
6.27587e-29
5.03908e-28
3.99712e-27
3.15915e-26
2.48584e-25
1.94712e-24
1.53324e-23
1.20132e-22
9.37284e-22
7.20163e-21
5.5746e-20
4.24003e-19
3.25202e-18
2.44784e-17
1.85932e-16
1.40285e-15
1.03801e-14
7.75853e-14
5.75569e-13
4.24365e-12
3.10856e-11
2.26127e-10
1.63248e-09
1.16861e-08
8.28477e-08
5.80638e-07
4.01208e-06
2.72167e-05
0.000180012
0.00114709
0.00689331
0.038688
1.07898e-92
1.1599e-91
1.06085e-90
9.551e-90
8.57311e-89
7.68483e-88
6.88062e-87
6.15371e-86
5.49759e-85
4.90619e-84
4.37381e-83
3.8952e-82
3.46546e-81
3.08009e-80
2.73491e-79
2.42611e-78
2.15017e-77
1.90372e-76
1.68401e-75
1.4771e-74
1.30536e-73
1.14373e-72
1.00893e-71
8.8878e-71
7.82409e-70
6.88304e-69
6.0515e-68
5.29125e-67
4.62586e-66
4.0597e-65
3.54527e-64
3.0958e-63
2.70211e-62
2.35742e-61
2.06115e-60
1.79623e-59
1.56518e-58
1.36549e-57
1.18863e-56
1.03448e-55
8.99972e-55
7.82621e-54
6.80327e-53
5.90869e-52
5.1153e-51
4.41777e-50
3.80159e-49
3.26241e-48
2.79486e-47
2.38337e-46
2.02663e-45
1.71805e-44
1.45583e-43
1.22989e-42
1.03611e-41
8.6735e-41
7.2401e-40
6.02356e-39
5.01701e-38
4.14475e-37
3.41386e-36
2.81701e-35
2.31606e-34
1.88657e-33
1.53176e-32
1.24742e-31
1.01174e-30
8.1178e-30
6.54298e-29
5.25085e-28
4.19794e-27
3.31441e-26
2.60766e-25
2.04241e-24
1.59259e-23
1.23598e-22
9.6491e-22
7.49075e-21
5.72345e-20
4.35492e-19
3.29602e-18
2.48094e-17
1.88214e-16
1.41832e-15
1.0481e-14
7.82504e-14
5.7987e-13
4.27092e-12
3.12548e-11
2.27152e-10
1.63851e-09
1.17204e-08
8.30353e-08
5.81612e-07
4.01681e-06
2.72377e-05
0.000180094
0.00114734
0.00689377
0.038688
1.10618e-92
1.18911e-91
1.0875e-90
9.79052e-90
8.78773e-89
7.87692e-88
7.05244e-87
6.30721e-86
5.63462e-85
5.02839e-84
4.4827e-83
3.99215e-82
3.5517e-81
3.15673e-80
2.80298e-79
2.48651e-78
2.20372e-77
1.95132e-76
1.72629e-75
1.52588e-74
1.34774e-73
1.18101e-72
1.04208e-71
9.12356e-71
7.98795e-70
7.02813e-69
6.17593e-68
5.42279e-67
4.73667e-66
4.15493e-65
3.64061e-64
3.1767e-63
2.7806e-62
2.4316e-61
2.125e-60
1.85588e-59
1.61982e-58
1.41051e-57
1.22794e-56
1.06976e-55
9.30457e-55
8.09477e-54
7.03577e-53
6.10984e-52
5.29026e-51
4.56498e-50
3.92731e-49
3.36847e-48
2.88036e-47
2.45532e-46
2.08652e-45
1.76762e-44
1.49674e-43
1.25973e-42
1.06052e-41
8.86726e-41
7.39207e-40
6.14183e-39
5.10851e-38
4.23427e-37
3.49869e-36
2.86622e-35
2.35406e-34
1.92581e-33
1.56041e-32
1.26892e-31
1.02039e-30
8.17707e-30
6.52685e-29
5.23022e-28
4.17213e-27
3.31491e-26
2.62364e-25
2.0488e-24
1.59399e-23
1.2342e-22
9.61473e-22
7.44919e-21
5.74601e-20
4.41231e-19
3.33152e-18
2.50506e-17
1.89871e-16
1.42953e-15
1.05539e-14
7.87304e-14
5.82966e-13
4.29052e-12
3.13763e-11
2.27887e-10
1.64283e-09
1.1745e-08
8.31695e-08
5.82308e-07
4.02019e-06
2.72527e-05
0.000180152
0.00114752
0.0068941
0.038688
1.13499e-92
1.2202e-91
1.11607e-90
1.00489e-89
9.02083e-89
8.08688e-88
7.24091e-87
6.47659e-86
5.78666e-85
5.16472e-84
4.60481e-83
4.10139e-82
3.64933e-81
3.24389e-80
2.8807e-79
2.55572e-78
2.26529e-77
2.00603e-76
1.77484e-75
1.56889e-74
1.38564e-73
1.2141e-72
1.07119e-71
9.43813e-71
8.30975e-70
7.27113e-69
6.39516e-68
5.61739e-67
4.90843e-66
4.28927e-65
3.74637e-64
3.28226e-63
2.86352e-62
2.50528e-61
2.18397e-60
1.90355e-59
1.66178e-58
1.44936e-57
1.26327e-56
1.10041e-55
9.57129e-55
8.32257e-54
7.23379e-53
6.28106e-52
5.43761e-51
4.69123e-50
4.03504e-49
3.45992e-48
2.96217e-47
2.52866e-46
2.14795e-45
1.8236e-44
1.5393e-43
1.29927e-42
1.0932e-41
9.17077e-41
7.64107e-40
6.37418e-39
5.27564e-38
4.3738e-37
3.61289e-36
2.97495e-35
2.442e-34
1.98559e-33
1.60916e-32
1.29918e-31
1.05227e-30
8.42445e-30
6.72272e-29
5.34286e-28
4.26445e-27
3.38731e-26
2.65535e-25
2.09395e-24
1.64326e-23
1.27108e-22
9.79669e-22
7.51324e-21
5.79903e-20
4.3958e-19
3.36057e-18
2.52128e-17
1.90944e-16
1.43681e-15
1.06012e-14
7.90418e-14
5.84973e-13
4.30322e-12
3.14549e-11
2.28362e-10
1.64562e-09
1.17608e-08
8.32559e-08
5.82757e-07
4.02237e-06
2.72623e-05
0.000180189
0.00114763
0.00689431
0.038688
1.1617e-92
1.24933e-91
1.14319e-90
1.02977e-89
9.24801e-89
8.29438e-88
7.43065e-87
6.64958e-86
5.94425e-85
5.30815e-84
4.73523e-83
4.21988e-82
3.75687e-81
3.34135e-80
2.96898e-79
2.63567e-78
2.33763e-77
2.07138e-76
1.83383e-75
1.62216e-74
1.43369e-73
1.25731e-72
1.10276e-71
9.72811e-71
8.51931e-70
7.50319e-69
6.59995e-68
5.77254e-67
5.04852e-66
4.41348e-65
3.85663e-64
3.36862e-63
2.94102e-62
2.56665e-61
2.23893e-60
1.95227e-59
1.70502e-58
1.48776e-57
1.29547e-56
1.12776e-55
9.82188e-55
8.54754e-54
7.43202e-53
6.45583e-52
5.58928e-51
4.82424e-50
4.15506e-49
3.56408e-48
3.04805e-47
2.60342e-46
2.21227e-45
1.87892e-44
1.59095e-43
1.34326e-42
1.1308e-41
9.45701e-41
7.91643e-40
6.57677e-39
5.47213e-38
4.5372e-37
3.73097e-36
3.05851e-35
2.51249e-34
2.05588e-33
1.66602e-32
1.34589e-31
1.083e-30
8.67854e-30
6.92689e-29
5.50633e-28
4.39667e-27
3.46304e-26
2.74361e-25
2.14207e-24
1.66634e-23
1.28991e-22
9.93858e-22
7.7061e-21
5.94298e-20
4.50667e-19
3.40462e-18
2.55811e-17
1.91178e-16
1.44038e-15
1.06246e-14
7.91951e-14
5.8596e-13
4.30946e-12
3.14935e-11
2.28595e-10
1.64699e-09
1.17686e-08
8.32983e-08
5.82976e-07
4.02343e-06
2.7267e-05
0.000180207
0.00114769
0.00689441
0.038688
1.16264e-92
1.25051e-91
1.14445e-90
1.03106e-89
9.26139e-89
8.30773e-88
7.44381e-87
6.66244e-86
5.95671e-85
5.32015e-84
4.74672e-83
4.23082e-82
3.76727e-81
3.35125e-80
2.97833e-79
2.64444e-78
2.34584e-77
2.07909e-76
1.84105e-75
1.62886e-74
1.42922e-73
1.26316e-72
1.10737e-71
9.70891e-71
8.50673e-70
7.49119e-69
6.58789e-68
5.78903e-67
5.06081e-66
4.42402e-65
3.86572e-64
3.37642e-63
2.94781e-62
2.57238e-61
2.24371e-60
1.96074e-59
1.71196e-58
1.49377e-57
1.30064e-56
1.1322e-55
9.85981e-55
8.5799e-54
7.46123e-53
6.48039e-52
5.60993e-51
4.8446e-50
4.17186e-49
3.578e-48
3.05949e-47
2.6128e-46
2.21986e-45
1.88046e-44
1.59211e-43
1.34376e-42
1.13085e-41
9.45451e-41
7.91167e-40
6.57038e-39
5.46506e-38
4.50736e-37
3.70931e-36
3.05537e-35
2.50748e-34
2.03848e-33
1.65188e-32
1.34269e-31
1.08698e-30
8.7029e-30
6.94456e-29
5.51896e-28
4.36773e-27
3.44087e-26
2.72435e-25
2.12557e-24
1.66911e-23
1.29048e-22
1.00506e-21
7.69886e-21
5.94376e-20
4.50748e-19
3.40454e-18
2.5581e-17
1.91178e-16
1.44037e-15
1.06246e-14
7.91951e-14
5.8596e-13
4.30946e-12
3.14935e-11
2.28595e-10
1.64699e-09
1.17686e-08
8.32983e-08
5.82976e-07
4.02343e-06
2.7267e-05
0.000180207
0.00114769
0.00689441
0.038688
1.13404e-92
1.21963e-91
1.11602e-90
1.00527e-89
9.02802e-89
8.09664e-88
7.25293e-87
6.48992e-86
5.80077e-85
5.17927e-84
4.61949e-83
4.11594e-82
3.66351e-81
3.25758e-80
2.89378e-79
2.56813e-78
2.27696e-77
2.01693e-76
1.78495e-75
1.57823e-74
1.38389e-73
1.22219e-72
1.0777e-71
9.49684e-71
8.3635e-70
7.36007e-69
6.47253e-68
5.66029e-67
4.97219e-66
4.34461e-65
3.79625e-64
3.31566e-63
2.904e-62
2.5409e-61
2.22188e-60
1.93709e-59
1.68847e-58
1.47366e-57
1.2851e-56
1.11997e-55
9.74636e-55
8.47897e-54
7.37337e-53
6.40557e-52
5.54836e-51
4.78937e-50
4.12164e-49
3.5361e-48
3.02442e-47
2.58353e-46
2.19573e-45
1.86519e-44
1.57531e-43
1.32653e-42
1.11343e-41
9.34864e-41
7.79305e-40
6.47683e-39
5.3893e-38
4.44678e-37
3.67676e-36
3.02902e-35
2.47298e-34
2.01268e-33
1.63186e-32
1.31812e-31
1.06798e-30
8.61669e-30
6.87409e-29
5.46605e-28
4.36582e-27
3.43992e-26
2.70081e-25
2.13151e-24
1.65696e-23
1.28329e-22
9.89281e-22
7.58832e-21
5.79109e-20
4.44918e-19
3.35579e-18
2.52121e-17
1.90943e-16
1.43681e-15
1.06012e-14
7.90416e-14
5.84972e-13
4.30321e-12
3.14549e-11
2.28362e-10
1.64562e-09
1.17608e-08
8.32559e-08
5.82757e-07
4.02237e-06
2.72623e-05
0.000180189
0.00114763
0.00689431
0.038688
1.09819e-92
1.18139e-91
1.08137e-90
9.74359e-90
8.7533e-89
7.85281e-88
7.03684e-87
6.29879e-86
5.63182e-85
5.03031e-84
4.48837e-83
4.00073e-82
3.56237e-81
3.16905e-80
2.81644e-79
2.50071e-78
2.21832e-77
1.96605e-76
1.74093e-75
1.54024e-74
1.36154e-73
1.20269e-72
1.0545e-71
9.24625e-71
8.15131e-70
7.13636e-69
6.24742e-68
5.49291e-67
4.80212e-66
4.1979e-65
3.66795e-64
3.21478e-63
2.81467e-62
2.45551e-61
2.14753e-60
1.87631e-59
1.63501e-58
1.42449e-57
1.24051e-56
1.08105e-55
9.41346e-55
8.19173e-54
7.12224e-53
6.18668e-52
5.35828e-51
4.62786e-50
3.98223e-49
3.41646e-48
2.92217e-47
2.49164e-46
2.11791e-45
1.79888e-44
1.51916e-43
1.27919e-42
1.0737e-41
9.01495e-41
7.51467e-40
6.24566e-39
5.19685e-38
4.30906e-37
3.56184e-36
2.91882e-35
2.38438e-34
1.95243e-33
1.58246e-32
1.28709e-31
1.03532e-30
8.30028e-30
6.62615e-29
5.2682e-28
4.20616e-27
3.34247e-26
2.62186e-25
2.06934e-24
1.60852e-23
1.24566e-22
9.60112e-22
7.44764e-21
5.74599e-20
4.41313e-19
3.33137e-18
2.50502e-17
1.89869e-16
1.42952e-15
1.05538e-14
7.87301e-14
5.82965e-13
4.29052e-12
3.13764e-11
2.27887e-10
1.64283e-09
1.1745e-08
8.31696e-08
5.82309e-07
4.02019e-06
2.72527e-05
0.000180152
0.00114752
0.0068941
0.038688
1.04847e-92
1.12793e-91
1.03244e-90
9.30281e-90
8.35693e-89
7.49679e-88
6.71726e-87
6.01194e-86
5.3747e-85
4.79961e-84
4.28157e-83
3.81542e-82
3.39652e-81
3.02053e-80
2.68349e-79
2.38172e-78
2.11186e-77
1.8708e-76
1.65573e-75
1.46404e-74
1.29339e-73
1.14177e-72
1.00155e-71
8.77529e-71
7.73119e-70
6.8022e-69
5.95023e-68
5.22983e-67
4.57074e-66
4.0114e-65
3.51691e-64
3.0813e-63
2.68919e-62
2.34655e-61
2.05206e-60
1.79278e-59
1.56265e-58
1.36132e-57
1.18714e-56
1.03327e-55
8.99094e-55
7.82019e-54
6.80078e-53
5.90746e-52
5.11485e-51
4.41806e-50
3.8021e-49
3.26239e-48
2.79502e-47
2.38774e-46
2.03429e-45
1.72437e-44
1.45741e-43
1.22797e-42
1.0347e-41
8.69181e-41
7.25207e-40
6.03342e-39
5.0026e-38
4.15311e-37
3.43555e-36
2.8179e-35
2.31761e-34
1.88779e-33
1.54257e-32
1.2472e-31
1.00511e-30
8.12772e-30
6.49402e-29
5.21397e-28
4.13299e-27
3.26435e-26
2.56651e-25
2.028e-24
1.59452e-23
1.23591e-22
9.54375e-22
7.33474e-21
5.67234e-20
4.36085e-19
3.29595e-18
2.48085e-17
1.88209e-16
1.41829e-15
1.04809e-14
7.82493e-14
5.79862e-13
4.27088e-12
3.12546e-11
2.27151e-10
1.63851e-09
1.17204e-08
8.30351e-08
5.81612e-07
4.01681e-06
2.72377e-05
0.000180094
0.00114734
0.00689377
0.038688
9.96166e-93
1.07207e-91
9.81755e-91
8.85014e-90
7.95395e-89
7.1386e-88
6.39931e-87
5.73009e-86
5.12519e-85
4.57882e-84
4.08666e-83
3.64361e-82
3.24528e-81
2.88762e-80
2.56688e-79
2.27958e-78
2.02255e-77
1.79287e-76
1.58776e-75
1.40496e-74
1.2333e-73
1.09007e-72
9.62012e-72
8.43175e-71
7.39149e-70
6.47572e-69
5.69918e-68
4.98596e-67
4.36169e-66
3.81371e-65
3.34559e-64
2.9215e-63
2.55894e-62
2.23268e-61
1.94781e-60
1.70242e-59
1.4836e-58
1.2927e-57
1.12749e-56
9.81515e-56
8.54204e-55
7.43104e-54
6.46331e-53
5.61588e-52
4.86391e-51
4.20281e-50
3.61843e-49
3.10629e-48
2.65873e-47
2.26878e-46
1.93013e-45
1.63697e-44
1.3841e-43
1.16669e-42
9.80354e-42