/*--------------------------------*- C++ -*----------------------------------*\
| =========                 |                                                 |
| \\      /  F ield         | OpenFOAM: The Open Source CFD Toolbox           |
|  \\    /   O peration     | Version:  2406                                  |
|   \\  /    A nd           | Website:  www.openfoam.com                      |
|    \\/     M anipulation  |                                                 |
\*---------------------------------------------------------------------------*/
FoamFile
{
    version     2.0;
    format      ascii;
    arch        "LSB;label=32;scalar=64";
    class       volScalarField;
    location    "2.64e-05";
    object      p;
}
// * * * * * * * * * * * * * * * * * * * * * * * * * * * * * * * * * * * * * //

dimensions      [1 -1 -2 0 0 0 0];

internalField   nonuniform List<scalar> 
4000
(
99993
99994.4
99995.5
99996.1
99996.5
99996.8
99997
99997.2
99997.4
99997.5
99997.7
99997.8
99997.9
99998
99998.1
99998.2
99998.2
99998.3
99998.4
99998.4
99998.5
99998.6
99998.6
99998.6
99998.7
99998.7
99998.8
99998.8
99998.8
99998.9
99998.9
99998.9
99998.9
99999
99999
99999
99999
99999
99999.1
99999.1
99999.1
99999.1
99999.1
99999.1
99999.1
99999.1
99999.1
99999.1
99999.1
99999.1
99999.1
99999.1
99999.1
99999.1
99999.1
99999.1
99999.1
99999.1
99999.1
99999.1
99999.1
99999
99999
99999
99999
99999
99999
99998.9
99998.9
99998.9
99998.8
99998.8
99998.8
99998.7
99998.7
99998.7
99998.6
99998.6
99998.5
99998.4
99998.4
99998.3
99998.2
99998.2
99998.1
99998
99997.9
99997.8
99997.7
99997.5
99997.4
99997.2
99997
99996.8
99996.5
99996.2
99995.8
99995.3
99994.6
99994.1
99953.4
99957.1
99961.5
99965.4
99968.6
99971.3
99973.5
99975.4
99977.1
99978.6
99979.9
99981.1
99982.1
99983.1
99984
99984.8
99985.6
99986.3
99986.9
99987.5
99988.1
99988.6
99989.1
99989.6
99990
99990.4
99990.8
99991.1
99991.5
99991.8
99992.1
99992.3
99992.6
99992.8
99993.1
99993.3
99993.5
99993.7
99993.8
99994
99994.1
99994.3
99994.4
99994.5
99994.6
99994.7
99994.8
99994.9
99994.9
99995
99995
99995.1
99995.1
99995.1
99995.1
99995.1
99995.1
99995.1
99995.1
99995
99995
99994.9
99994.8
99994.8
99994.7
99994.6
99994.4
99994.3
99994.2
99994
99993.8
99993.6
99993.4
99993.2
99993
99992.7
99992.4
99992.1
99991.8
99991.4
99991
99990.6
99990.1
99989.6
99989.1
99988.5
99987.8
99987.1
99986.3
99985.4
99984.5
99983.3
99982.1
99980.6
99978.9
99976.9
99974.4
99971.4
99968
99965.2
99922.6
99927
99932.7
99938.2
99943
99947.2
99951
99954.3
99957.2
99959.8
99962.2
99964.4
99966.4
99968.2
99969.8
99971.4
99972.8
99974.1
99975.3
99976.5
99977.6
99978.6
99979.5
99980.4
99981.2
99982
99982.7
99983.4
99984
99984.6
99985.2
99985.7
99986.2
99986.6
99987.1
99987.5
99987.9
99988.2
99988.6
99988.9
99989.1
99989.4
99989.7
99989.9
99990.1
99990.3
99990.4
99990.6
99990.7
99990.8
99990.9
99991
99991
99991.1
99991.1
99991.1
99991.1
99991
99991
99990.9
99990.8
99990.7
99990.5
99990.4
99990.2
99990
99989.8
99989.5
99989.3
99989
99988.6
99988.3
99987.9
99987.4
99987
99986.5
99985.9
99985.4
99984.7
99984
99983.3
99982.5
99981.6
99980.7
99979.7
99978.6
99977.4
99976
99974.6
99972.9
99971.2
99969.2
99966.9
99964.4
99961.6
99958.3
99954.5
99950.3
99945.9
99942.4
99897.8
99902.4
99908.7
99915
99920.7
99926
99930.7
99935
99938.9
99942.4
99945.7
99948.6
99951.4
99953.9
99956.3
99958.5
99960.5
99962.4
99964.1
99965.8
99967.3
99968.8
99970.1
99971.4
99972.6
99973.7
99974.8
99975.7
99976.7
99977.5
99978.4
99979.1
99979.9
99980.6
99981.2
99981.8
99982.3
99982.9
99983.4
99983.8
99984.2
99984.6
99985
99985.3
99985.6
99985.9
99986.1
99986.3
99986.5
99986.7
99986.8
99986.9
99987
99987
99987.1
99987.1
99987
99987
99986.9
99986.8
99986.7
99986.5
99986.3
99986.1
99985.8
99985.5
99985.2
99984.8
99984.4
99984
99983.5
99983
99982.4
99981.8
99981.1
99980.4
99979.6
99978.8
99977.8
99976.9
99975.8
99974.7
99973.4
99972.1
99970.6
99969
99967.3
99965.5
99963.4
99961.2
99958.8
99956.1
99953.1
99949.8
99946.2
99942.2
99937.7
99932.9
99928
99924.3
99877.2
99882
99888.6
99895.3
99901.6
99907.4
99912.8
99917.7
99922.3
99926.6
99930.5
99934.1
99937.5
99940.6
99943.6
99946.3
99948.9
99951.2
99953.5
99955.6
99957.5
99959.4
99961.1
99962.8
99964.3
99965.7
99967.1
99968.4
99969.6
99970.7
99971.8
99972.8
99973.7
99974.6
99975.5
99976.2
99977
99977.7
99978.3
99978.9
99979.4
99979.9
99980.4
99980.8
99981.2
99981.6
99981.9
99982.2
99982.4
99982.6
99982.8
99982.9
99983
99983.1
99983.2
99983.2
99983.1
99983
99982.9
99982.8
99982.6
99982.4
99982.1
99981.9
99981.5
99981.1
99980.7
99980.2
99979.7
99979.1
99978.5
99977.8
99977.1
99976.3
99975.4
99974.5
99973.5
99972.4
99971.3
99970
99968.6
99967.2
99965.6
99963.9
99962.1
99960.1
99958
99955.7
99953.2
99950.5
99947.5
99944.3
99940.8
99937
99932.9
99928.4
99923.5
99918.3
99913.2
99909.4
99859.6
99864.5
99871.4
99878.3
99885
99891.2
99897
99902.5
99907.6
99912.3
99916.7
99920.9
99924.8
99928.4
99931.8
99935
99938
99940.8
99943.5
99946
99948.3
99950.5
99952.6
99954.6
99956.4
99958.2
99959.8
99961.4
99962.8
99964.2
99965.5
99966.7
99967.9
99968.9
99970
99970.9
99971.8
99972.6
99973.4
99974.1
99974.8
99975.4
99976
99976.5
99977
99977.4
99977.8
99978.2
99978.5
99978.7
99978.9
99979.1
99979.2
99979.3
99979.4
99979.4
99979.3
99979.2
99979.1
99978.9
99978.7
99978.5
99978.1
99977.8
99977.4
99976.9
99976.4
99975.8
99975.2
99974.5
99973.8
99972.9
99972
99971.1
99970
99968.9
99967.7
99966.4
99965
99963.5
99961.9
99960.2
99958.3
99956.3
99954.2
99951.9
99949.4
99946.7
99943.9
99940.8
99937.5
99933.9
99930
99925.9
99921.4
99916.6
99911.5
99906
99900.8
99896.9
99844.6
99849.6
99856.5
99863.7
99870.6
99877.1
99883.2
99889
99894.5
99899.6
99904.4
99909
99913.2
99917.3
99921.1
99924.6
99928
99931.2
99934.2
99937
99939.7
99942.2
99944.6
99946.9
99949
99951
99952.9
99954.7
99956.4
99958
99959.5
99960.9
99962.3
99963.5
99964.7
99965.8
99966.9
99967.8
99968.7
99969.6
99970.4
99971.1
99971.8
99972.4
99972.9
99973.4
99973.9
99974.3
99974.7
99975
99975.2
99975.4
99975.6
99975.7
99975.7
99975.7
99975.7
99975.6
99975.4
99975.2
99975
99974.7
99974.3
99973.9
99973.4
99972.9
99972.3
99971.6
99970.9
99970.1
99969.2
99968.3
99967.2
99966.1
99964.9
99963.7
99962.3
99960.8
99959.2
99957.5
99955.6
99953.7
99951.6
99949.3
99946.9
99944.3
99941.6
99938.6
99935.5
99932.1
99928.5
99924.7
99920.5
99916.1
99911.4
99906.4
99901.1
99895.6
99890.2
99886.3
99831.6
99836.6
99843.7
99851
99858
99864.7
99871.1
99877.1
99882.9
99888.3
99893.4
99898.3
99902.9
99907.2
99911.3
99915.2
99918.9
99922.4
99925.7
99928.8
99931.7
99934.5
99937.2
99939.7
99942.1
99944.3
99946.5
99948.5
99950.4
99952.2
99953.9
99955.5
99957
99958.4
99959.7
99961
99962.2
99963.3
99964.3
99965.3
99966.2
99967
99967.7
99968.4
99969.1
99969.7
99970.2
99970.6
99971
99971.4
99971.7
99971.9
99972.1
99972.2
99972.3
99972.3
99972.2
99972.1
99971.9
99971.7
99971.4
99971.1
99970.7
99970.2
99969.7
99969.1
99968.4
99967.7
99966.8
99965.9
99965
99963.9
99962.8
99961.5
99960.2
99958.7
99957.2
99955.6
99953.8
99951.9
99949.9
99947.7
99945.4
99943
99940.3
99937.5
99934.6
99931.4
99928
99924.4
99920.6
99916.6
99912.2
99907.7
99902.8
99897.6
99892.2
99886.6
99881.2
99877.2
99820.4
99825.4
99832.5
99839.9
99847.1
99854
99860.5
99866.7
99872.6
99878.3
99883.6
99888.7
99893.6
99898.2
99902.5
99906.7
99910.6
99914.4
99917.9
99921.3
99924.5
99927.5
99930.4
99933.1
99935.7
99938.1
99940.5
99942.7
99944.8
99946.7
99948.6
99950.4
99952
99953.6
99955.1
99956.5
99957.8
99959
99960.1
99961.2
99962.2
99963.1
99964
99964.7
99965.4
99966.1
99966.7
99967.2
99967.6
99968
99968.3
99968.6
99968.8
99968.9
99969
99969
99968.9
99968.8
99968.6
99968.4
99968.1
99967.7
99967.3
99966.8
99966.2
99965.5
99964.8
99963.9
99963
99962.1
99961
99959.8
99958.6
99957.2
99955.8
99954.2
99952.5
99950.8
99948.8
99946.8
99944.6
99942.3
99939.8
99937.2
99934.4
99931.5
99928.3
99925
99921.4
99917.7
99913.7
99909.5
99905
99900.3
99895.3
99890
99884.5
99878.8
99873.4
99869.4
99810.6
99815.7
99822.8
99830.3
99837.6
99844.5
99851.2
99857.6
99863.7
99869.5
99875
99880.3
99885.3
99890.1
99894.7
99899
99903.2
99907.1
99910.9
99914.5
99917.9
99921.1
99924.2
99927.1
99929.9
99932.5
99935
99937.4
99939.6
99941.7
99943.8
99945.7
99947.5
99949.2
99950.8
99952.3
99953.7
99955
99956.3
99957.4
99958.5
99959.5
99960.4
99961.3
99962
99962.7
99963.4
99963.9
99964.4
99964.8
99965.2
99965.5
99965.7
99965.8
99965.9
99965.9
99965.9
99965.8
99965.6
99965.3
99965
99964.6
99964.1
99963.5
99962.9
99962.2
99961.4
99960.5
99959.5
99958.5
99957.3
99956.1
99954.7
99953.3
99951.7
99950.1
99948.3
99946.4
99944.4
99942.2
99939.9
99937.4
99934.8
99932.1
99929.1
99926
99922.7
99919.3
99915.6
99911.7
99907.6
99903.3
99898.7
99893.9
99888.8
99883.5
99877.9
99872.1
99866.6
99862.7
99802.2
99807.3
99814.4
99821.9
99829.3
99836.3
99843.1
99849.6
99855.8
99861.7
99867.4
99872.9
99878
99883
99887.7
99892.3
99896.6
99900.7
99904.6
99908.4
99911.9
99915.3
99918.6
99921.6
99924.6
99927.4
99930
99932.5
99934.9
99937.2
99939.3
99941.4
99943.3
99945.1
99946.8
99948.4
99949.9
99951.4
99952.7
99953.9
99955.1
99956.2
99957.2
99958.1
99958.9
99959.7
99960.3
99960.9
99961.5
99961.9
99962.3
99962.6
99962.8
99963
99963.1
99963.1
99963.1
99962.9
99962.7
99962.5
99962.1
99961.7
99961.2
99960.6
99959.9
99959.1
99958.3
99957.4
99956.3
99955.2
99954
99952.7
99951.3
99949.7
99948.1
99946.3
99944.5
99942.5
99940.3
99938
99935.6
99933.1
99930.4
99927.5
99924.4
99921.2
99917.8
99914.2
99910.5
99906.5
99902.3
99897.9
99893.2
99888.3
99883.2
99877.8
99872.2
99866.4
99860.9
99856.9
99794.9
99800
99807.2
99814.7
99822.1
99829.2
99836.1
99842.7
99849
99855
99860.8
99866.4
99871.7
99876.8
99881.6
99886.3
99890.7
99895
99899.1
99903
99906.7
99910.2
99913.6
99916.8
99919.9
99922.8
99925.5
99928.2
99930.7
99933.1
99935.3
99937.5
99939.5
99941.4
99943.2
99944.9
99946.5
99948.1
99949.5
99950.8
99952
99953.1
99954.2
99955.2
99956
99956.8
99957.6
99958.2
99958.8
99959.3
99959.7
99960
99960.3
99960.4
99960.5
99960.6
99960.5
99960.4
99960.2
99959.9
99959.5
99959
99958.5
99957.9
99957.2
99956.4
99955.5
99954.5
99953.4
99952.3
99951
99949.6
99948.1
99946.5
99944.8
99943
99941
99938.9
99936.7
99934.4
99931.9
99929.2
99926.4
99923.5
99920.3
99917
99913.5
99909.9
99906
99901.9
99897.7
99893.2
99888.5
99883.5
99878.3
99872.9
99867.2
99861.4
99855.9
99851.9
99788.7
99793.7
99801
99808.5
99816
99823.1
99830.1
99836.7
99843.1
99849.2
99855.1
99860.7
99866.1
99871.3
99876.3
99881.1
99885.7
99890
99894.2
99898.2
99902
99905.7
99909.2
99912.5
99915.7
99918.7
99921.6
99924.3
99927
99929.4
99931.8
99934
99936.1
99938.1
99940
99941.8
99943.5
99945.1
99946.6
99947.9
99949.2
99950.4
99951.5
99952.5
99953.5
99954.3
99955.1
99955.8
99956.4
99956.9
99957.3
99957.6
99957.9
99958.1
99958.2
99958.2
99958.2
99958.1
99957.8
99957.5
99957.2
99956.7
99956.1
99955.5
99954.8
99953.9
99953
99952
99950.9
99949.6
99948.3
99946.9
99945.4
99943.7
99941.9
99940
99938
99935.9
99933.6
99931.2
99928.6
99925.9
99923
99920
99916.8
99913.4
99909.8
99906.1
99902.2
99898
99893.7
99889.2
99884.4
99879.4
99874.2
99868.7
99863
99857.2
99851.7
99847.7
99783.4
99788.4
99795.7
99803.3
99810.8
99818
99824.9
99831.6
99838
99844.2
99850.2
99855.9
99861.4
99866.7
99871.8
99876.6
99881.3
99885.7
99890
99894.1
99898
99901.8
99905.4
99908.8
99912.1
99915.2
99918.1
99921
99923.7
99926.2
99928.7
99931
99933.2
99935.3
99937.2
99939.1
99940.8
99942.5
99944
99945.4
99946.8
99948
99949.2
99950.2
99951.2
99952.1
99952.9
99953.6
99954.2
99954.7
99955.2
99955.6
99955.9
99956.1
99956.2
99956.2
99956.2
99956
99955.8
99955.5
99955.1
99954.6
99954
99953.4
99952.6
99951.8
99950.8
99949.8
99948.6
99947.4
99946
99944.5
99942.9
99941.2
99939.4
99937.5
99935.4
99933.2
99930.9
99928.4
99925.8
99923
99920
99917
99913.7
99910.3
99906.7
99902.9
99898.9
99894.7
99890.3
99885.8
99881
99875.9
99870.7
99865.2
99859.5
99853.7
99848.1
99844.1
99778.9
99784
99791.3
99798.9
99806.4
99813.6
99820.6
99827.4
99833.8
99840.1
99846.1
99851.9
99857.4
99862.8
99867.9
99872.8
99877.6
99882.1
99886.5
99890.6
99894.6
99898.5
99902.1
99905.6
99909
99912.2
99915.2
99918.1
99920.9
99923.5
99926
99928.4
99930.7
99932.8
99934.8
99936.7
99938.5
99940.2
99941.8
99943.3
99944.7
99946
99947.2
99948.3
99949.3
99950.2
99951
99951.7
99952.4
99952.9
99953.4
99953.8
99954.1
99954.3
99954.4
99954.4
99954.4
99954.3
99954
99953.7
99953.3
99952.8
99952.2
99951.6
99950.8
99949.9
99948.9
99947.9
99946.7
99945.4
99944
99942.5
99940.9
99939.1
99937.3
99935.3
99933.2
99930.9
99928.5
99926
99923.4
99920.5
99917.6
99914.4
99911.1
99907.7
99904
99900.2
99896.2
99891.9
99887.5
99882.9
99878.1
99873
99867.8
99862.3
99856.6
99850.7
99845.2
99841.2
99775.4
99780.4
99787.7
99795.3
99802.9
99810.1
99817.1
99823.9
99830.4
99836.7
99842.7
99848.6
99854.2
99859.6
99864.8
99869.7
99874.5
99879.1
99883.5
99887.8
99891.8
99895.7
99899.4
99903
99906.4
99909.7
99912.8
99915.7
99918.6
99921.3
99923.8
99926.2
99928.6
99930.7
99932.8
99934.8
99936.6
99938.4
99940
99941.5
99942.9
99944.2
99945.5
99946.6
99947.6
99948.6
99949.4
99950.2
99950.8
99951.4
99951.9
99952.3
99952.6
99952.8
99952.9
99953
99952.9
99952.8
99952.6
99952.2
99951.8
99951.3
99950.7
99950
99949.2
99948.3
99947.4
99946.3
99945.1
99943.8
99942.3
99940.8
99939.2
99937.4
99935.5
99933.5
99931.3
99929.1
99926.6
99924.1
99921.4
99918.5
99915.5
99912.3
99909
99905.5
99901.8
99898
99893.9
99889.7
99885.2
99880.6
99875.8
99870.7
99865.4
99859.9
99854.2
99848.3
99842.8
99838.8
99772.5
99777.6
99784.9
99792.5
99800.1
99807.3
99814.4
99821.2
99827.7
99834
99840.1
99846
99851.6
99857
99862.3
99867.3
99872.1
99876.8
99881.2
99885.5
99889.6
99893.5
99897.3
99900.9
99904.4
99907.7
99910.8
99913.8
99916.7
99919.4
99922
99924.5
99926.9
99929.1
99931.2
99933.2
99935.1
99936.8
99938.5
99940.1
99941.5
99942.9
99944.1
99945.3
99946.3
99947.3
99948.1
99948.9
99949.6
99950.2
99950.7
99951.1
99951.4
99951.6
99951.7
99951.8
99951.7
99951.6
99951.4
99951
99950.6
99950.1
99949.5
99948.8
99948
99947.1
99946.1
99945
99943.8
99942.4
99941
99939.5
99937.8
99936
99934.1
99932
99929.9
99927.6
99925.1
99922.5
99919.8
99916.9
99913.9
99910.7
99907.3
99903.8
99900.1
99896.2
99892.2
99887.9
99883.4
99878.8
99873.9
99868.9
99863.6
99858
99852.3
99846.4
99840.9
99836.9
99770.4
99775.5
99782.8
99790.5
99798
99805.3
99812.3
99819.1
99825.7
99832
99838.1
99844
99849.7
99855.2
99860.4
99865.5
99870.3
99875
99879.5
99883.8
99888
99891.9
99895.7
99899.4
99902.9
99906.2
99909.4
99912.4
99915.3
99918.1
99920.7
99923.2
99925.6
99927.9
99930
99932
99933.9
99935.7
99937.4
99939
99940.4
99941.8
99943.1
99944.2
99945.3
99946.3
99947.2
99947.9
99948.6
99949.2
99949.7
99950.1
99950.5
99950.7
99950.8
99950.9
99950.8
99950.7
99950.5
99950.1
99949.7
99949.2
99948.6
99947.9
99947.1
99946.2
99945.2
99944
99942.8
99941.5
99940
99938.4
99936.8
99935
99933
99931
99928.8
99926.5
99924
99921.4
99918.6
99915.7
99912.7
99909.5
99906.1
99902.6
99898.8
99894.9
99890.9
99886.6
99882.1
99877.5
99872.6
99867.5
99862.2
99856.7
99850.9
99845.1
99839.5
99835.5
99769.1
99774.2
99781.4
99789.1
99796.6
99803.9
99811
99817.8
99824.4
99830.7
99836.9
99842.8
99848.4
99853.9
99859.2
99864.3
99869.2
99873.9
99878.4
99882.7
99886.9
99890.8
99894.7
99898.3
99901.8
99905.2
99908.4
99911.5
99914.4
99917.2
99919.8
99922.4
99924.8
99927
99929.2
99931.2
99933.2
99935
99936.7
99938.3
99939.7
99941.1
99942.4
99943.6
99944.7
99945.6
99946.5
99947.3
99948
99948.6
99949.1
99949.5
99949.9
99950.1
99950.2
99950.3
99950.2
99950.1
99949.9
99949.6
99949.1
99948.6
99948
99947.3
99946.5
99945.5
99944.5
99943.4
99942.2
99940.8
99939.3
99937.8
99936.1
99934.3
99932.3
99930.3
99928.1
99925.7
99923.2
99920.6
99917.9
99915
99911.9
99908.7
99905.3
99901.7
99898
99894.1
99890
99885.7
99881.2
99876.6
99871.7
99866.6
99861.3
99855.8
99850
99844.2
99838.6
99834.6
99768.4
99773.5
99780.8
99788.4
99796
99803.3
99810.3
99817.1
99823.7
99830.1
99836.2
99842.1
99847.8
99853.3
99858.6
99863.7
99868.6
99873.3
99877.8
99882.1
99886.3
99890.3
99894.1
99897.8
99901.3
99904.7
99907.9
99911
99913.9
99916.7
99919.4
99921.9
99924.3
99926.6
99928.8
99930.8
99932.8
99934.6
99936.3
99937.9
99939.4
99940.8
99942.1
99943.2
99944.3
99945.3
99946.2
99947
99947.7
99948.3
99948.8
99949.2
99949.6
99949.8
99949.9
99950
99949.9
99949.8
99949.6
99949.3
99948.8
99948.3
99947.7
99947
99946.2
99945.2
99944.2
99943.1
99941.8
99940.5
99939
99937.4
99935.7
99933.9
99932
99929.9
99927.7
99925.4
99922.9
99920.3
99917.5
99914.6
99911.5
99908.3
99904.9
99901.3
99897.6
99893.7
99889.6
99885.3
99880.8
99876.1
99871.2
99866.1
99860.8
99855.3
99849.6
99843.7
99838.2
99834.2
99768.4
99773.5
99780.8
99788.4
99796
99803.3
99810.3
99817.1
99823.7
99830.1
99836.2
99842.1
99847.8
99853.3
99858.6
99863.7
99868.6
99873.3
99877.8
99882.1
99886.3
99890.3
99894.1
99897.8
99901.3
99904.7
99907.9
99911
99913.9
99916.7
99919.4
99921.9
99924.3
99926.6
99928.8
99930.8
99932.8
99934.6
99936.3
99937.9
99939.4
99940.8
99942.1
99943.2
99944.3
99945.3
99946.2
99947
99947.7
99948.3
99948.8
99949.2
99949.6
99949.8
99949.9
99950
99949.9
99949.8
99949.6
99949.3
99948.8
99948.3
99947.7
99947
99946.2
99945.2
99944.2
99943.1
99941.8
99940.5
99939
99937.4
99935.7
99933.9
99932
99929.9
99927.7
99925.4
99922.9
99920.3
99917.5
99914.6
99911.5
99908.3
99904.9
99901.3
99897.6
99893.7
99889.6
99885.3
99880.8
99876.1
99871.2
99866.1
99860.8
99855.3
99849.6
99843.7
99838.2
99834.2
99769.1
99774.2
99781.4
99789.1
99796.6
99803.9
99811
99817.8
99824.4
99830.7
99836.9
99842.8
99848.4
99853.9
99859.2
99864.3
99869.2
99873.9
99878.4
99882.7
99886.9
99890.8
99894.7
99898.3
99901.8
99905.2
99908.4
99911.5
99914.4
99917.2
99919.8
99922.4
99924.8
99927
99929.2
99931.2
99933.2
99935
99936.7
99938.3
99939.7
99941.1
99942.4
99943.6
99944.7
99945.6
99946.5
99947.3
99948
99948.6
99949.1
99949.5
99949.9
99950.1
99950.2
99950.3
99950.2
99950.1
99949.9
99949.6
99949.1
99948.6
99948
99947.3
99946.5
99945.5
99944.5
99943.4
99942.2
99940.8
99939.3
99937.8
99936.1
99934.3
99932.3
99930.3
99928.1
99925.7
99923.2
99920.6
99917.9
99915
99911.9
99908.7
99905.3
99901.7
99898
99894.1
99890
99885.7
99881.2
99876.6
99871.7
99866.6
99861.3
99855.8
99850
99844.2
99838.6
99834.6
99770.4
99775.5
99782.8
99790.5
99798
99805.3
99812.3
99819.1
99825.7
99832
99838.1
99844
99849.7
99855.2
99860.4
99865.5
99870.3
99875
99879.5
99883.8
99888
99891.9
99895.7
99899.4
99902.9
99906.2
99909.4
99912.4
99915.3
99918.1
99920.7
99923.2
99925.6
99927.9
99930
99932
99933.9
99935.7
99937.4
99939
99940.4
99941.8
99943.1
99944.2
99945.3
99946.3
99947.2
99947.9
99948.6
99949.2
99949.7
99950.1
99950.5
99950.7
99950.8
99950.9
99950.8
99950.7
99950.5
99950.1
99949.7
99949.2
99948.6
99947.9
99947.1
99946.2
99945.2
99944
99942.8
99941.5
99940
99938.4
99936.8
99935
99933
99931
99928.8
99926.5
99924
99921.4
99918.6
99915.7
99912.7
99909.5
99906.1
99902.6
99898.8
99894.9
99890.9
99886.6
99882.1
99877.5
99872.6
99867.5
99862.2
99856.7
99850.9
99845.1
99839.5
99835.5
99772.5
99777.6
99784.9
99792.5
99800.1
99807.3
99814.4
99821.2
99827.7
99834
99840.1
99846
99851.6
99857
99862.3
99867.3
99872.1
99876.8
99881.2
99885.5
99889.6
99893.5
99897.3
99900.9
99904.4
99907.7
99910.8
99913.8
99916.7
99919.4
99922
99924.5
99926.9
99929.1
99931.2
99933.2
99935.1
99936.8
99938.5
99940.1
99941.5
99942.9
99944.1
99945.3
99946.3
99947.3
99948.1
99948.9
99949.6
99950.2
99950.7
99951.1
99951.4
99951.6
99951.7
99951.8
99951.7
99951.6
99951.4
99951
99950.6
99950.1
99949.5
99948.8
99948
99947.1
99946.1
99945
99943.8
99942.4
99941
99939.5
99937.8
99936
99934.1
99932
99929.9
99927.6
99925.1
99922.5
99919.8
99916.9
99913.9
99910.7
99907.3
99903.8
99900.1
99896.2
99892.2
99887.9
99883.4
99878.8
99873.9
99868.9
99863.6
99858
99852.3
99846.4
99840.9
99836.9
99775.4
99780.4
99787.7
99795.3
99802.9
99810.1
99817.1
99823.9
99830.4
99836.7
99842.7
99848.6
99854.2
99859.6
99864.8
99869.7
99874.5
99879.1
99883.5
99887.8
99891.8
99895.7
99899.4
99903
99906.4
99909.7
99912.8
99915.7
99918.6
99921.3
99923.8
99926.2
99928.6
99930.7
99932.8
99934.8
99936.6
99938.4
99940
99941.5
99942.9
99944.2
99945.5
99946.6
99947.6
99948.6
99949.4
99950.2
99950.8
99951.4
99951.9
99952.3
99952.6
99952.8
99952.9
99953
99952.9
99952.8
99952.6
99952.2
99951.8
99951.3
99950.7
99950
99949.2
99948.3
99947.4
99946.3
99945.1
99943.8
99942.3
99940.8
99939.2
99937.4
99935.5
99933.5
99931.3
99929.1
99926.6
99924.1
99921.4
99918.5
99915.5
99912.3
99909
99905.5
99901.8
99898
99893.9
99889.7
99885.2
99880.6
99875.8
99870.7
99865.4
99859.9
99854.2
99848.3
99842.8
99838.8
99778.9
99784
99791.3
99798.9
99806.4
99813.6
99820.6
99827.4
99833.8
99840.1
99846.1
99851.9
99857.4
99862.8
99867.9
99872.8
99877.6
99882.1
99886.5
99890.6
99894.6
99898.5
99902.1
99905.6
99909
99912.2
99915.2
99918.1
99920.9
99923.5
99926
99928.4
99930.7
99932.8
99934.8
99936.7
99938.5
99940.2
99941.8
99943.3
99944.7
99946
99947.2
99948.3
99949.3
99950.2
99951
99951.7
99952.4
99952.9
99953.4
99953.8
99954.1
99954.3
99954.4
99954.4
99954.4
99954.3
99954
99953.7
99953.3
99952.8
99952.2
99951.6
99950.8
99949.9
99948.9
99947.9
99946.7
99945.4
99944
99942.5
99940.9
99939.1
99937.3
99935.3
99933.2
99930.9
99928.5
99926
99923.4
99920.5
99917.6
99914.4
99911.1
99907.7
99904
99900.2
99896.2
99891.9
99887.5
99882.9
99878.1
99873
99867.8
99862.3
99856.6
99850.7
99845.2
99841.2
99783.4
99788.4
99795.7
99803.3
99810.8
99818
99824.9
99831.6
99838
99844.2
99850.2
99855.9
99861.4
99866.7
99871.8
99876.6
99881.3
99885.7
99890
99894.1
99898
99901.8
99905.4
99908.8
99912.1
99915.2
99918.1
99921
99923.7
99926.2
99928.7
99931
99933.2
99935.3
99937.2
99939.1
99940.8
99942.5
99944
99945.4
99946.8
99948
99949.2
99950.2
99951.2
99952.1
99952.9
99953.6
99954.2
99954.7
99955.2
99955.6
99955.9
99956.1
99956.2
99956.2
99956.2
99956
99955.8
99955.5
99955.1
99954.6
99954
99953.4
99952.6
99951.8
99950.8
99949.8
99948.6
99947.4
99946
99944.5
99942.9
99941.2
99939.4
99937.5
99935.4
99933.2
99930.9
99928.4
99925.8
99923
99920
99917
99913.7
99910.3
99906.7
99902.9
99898.9
99894.7
99890.3
99885.8
99881
99875.9
99870.7
99865.2
99859.5
99853.7
99848.1
99844.1
99788.7
99793.7
99801
99808.5
99816
99823.1
99830.1
99836.7
99843.1
99849.2
99855.1
99860.7
99866.1
99871.3
99876.3
99881.1
99885.7
99890
99894.2
99898.2
99902
99905.7
99909.2
99912.5
99915.7
99918.7
99921.6
99924.3
99927
99929.4
99931.8
99934
99936.1
99938.1
99940
99941.8
99943.5
99945.1
99946.6
99947.9
99949.2
99950.4
99951.5
99952.5
99953.5
99954.3
99955.1
99955.8
99956.4
99956.9
99957.3
99957.6
99957.9
99958.1
99958.2
99958.2
99958.2
99958.1
99957.8
99957.5
99957.2
99956.7
99956.1
99955.5
99954.8
99953.9
99953
99952
99950.9
99949.6
99948.3
99946.9
99945.4
99943.7
99941.9
99940
99938
99935.9
99933.6
99931.2
99928.6
99925.9
99923
99920
99916.8
99913.4
99909.8
99906.1
99902.2
99898
99893.7
99889.2
99884.4
99879.4
99874.2
99868.7
99863
99857.2
99851.7
99847.7
99794.9
99800
99807.2
99814.7
99822.1
99829.2
99836.1
99842.7
99849
99855
99860.8
99866.4
99871.7
99876.8
99881.6
99886.3
99890.7
99895
99899.1
99903
99906.7
99910.2
99913.6
99916.8
99919.9
99922.8
99925.5
99928.2
99930.7
99933.1
99935.3
99937.5
99939.5
99941.4
99943.2
99944.9
99946.5
99948.1
99949.5
99950.8
99952
99953.1
99954.2
99955.2
99956
99956.8
99957.6
99958.2
99958.8
99959.3
99959.7
99960
99960.3
99960.4
99960.5
99960.6
99960.5
99960.4
99960.2
99959.9
99959.5
99959
99958.5
99957.9
99957.2
99956.4
99955.5
99954.5
99953.4
99952.3
99951
99949.6
99948.1
99946.5
99944.8
99943
99941
99938.9
99936.7
99934.4
99931.9
99929.2
99926.4
99923.5
99920.3
99917
99913.5
99909.9
99906
99901.9
99897.7
99893.2
99888.5
99883.5
99878.3
99872.9
99867.2
99861.4
99855.9
99851.9
99802.2
99807.3
99814.4
99821.9
99829.3
99836.3
99843.1
99849.6
99855.8
99861.7
99867.4
99872.9
99878
99883
99887.7
99892.3
99896.6
99900.7
99904.6
99908.4
99911.9
99915.3
99918.6
99921.6
99924.6
99927.4
99930
99932.5
99934.9
99937.2
99939.3
99941.4
99943.3
99945.1
99946.8
99948.4
99949.9
99951.4
99952.7
99953.9
99955.1
99956.2
99957.2
99958.1
99958.9
99959.7
99960.3
99960.9
99961.5
99961.9
99962.3
99962.6
99962.8
99963
99963.1
99963.1
99963.1
99962.9
99962.7
99962.5
99962.1
99961.7
99961.2
99960.6
99959.9
99959.1
99958.3
99957.4
99956.3
99955.2
99954
99952.7
99951.3
99949.7
99948.1
99946.3
99944.5
99942.5
99940.3
99938
99935.6
99933.1
99930.4
99927.5
99924.4
99921.2
99917.8
99914.2
99910.5
99906.5
99902.3
99897.9
99893.2
99888.3
99883.2
99877.8
99872.2
99866.4
99860.9
99856.9
99810.6
99815.7
99822.8
99830.3
99837.6
99844.5
99851.2
99857.6
99863.7
99869.5
99875
99880.3
99885.3
99890.1
99894.7
99899
99903.2
99907.1
99910.9
99914.5
99917.9
99921.1
99924.2
99927.1
99929.9
99932.5
99935
99937.4
99939.6
99941.7
99943.8
99945.7
99947.5
99949.2
99950.8
99952.3
99953.7
99955
99956.3
99957.4
99958.5
99959.5
99960.4
99961.3
99962
99962.7
99963.4
99963.9
99964.4
99964.8
99965.2
99965.5
99965.7
99965.8
99965.9
99965.9
99965.9
99965.8
99965.6
99965.3
99965
99964.6
99964.1
99963.5
99962.9
99962.2
99961.4
99960.5
99959.5
99958.5
99957.3
99956.1
99954.7
99953.3
99951.7
99950.1
99948.3
99946.4
99944.4
99942.2
99939.9
99937.4
99934.8
99932.1
99929.1
99926
99922.7
99919.3
99915.6
99911.7
99907.6
99903.3
99898.7
99893.9
99888.8
99883.5
99877.9
99872.1
99866.6
99862.7
99820.4
99825.4
99832.5
99839.9
99847.1
99854
99860.5
99866.7
99872.6
99878.3
99883.6
99888.7
99893.6
99898.2
99902.5
99906.7
99910.6
99914.4
99917.9
99921.3
99924.5
99927.5
99930.4
99933.1
99935.7
99938.1
99940.5
99942.7
99944.8
99946.7
99948.6
99950.4
99952
99953.6
99955.1
99956.5
99957.8
99959
99960.1
99961.2
99962.2
99963.1
99964
99964.7
99965.4
99966.1
99966.7
99967.2
99967.6
99968
99968.3
99968.6
99968.8
99968.9
99969
99969
99968.9
99968.8
99968.6
99968.4
99968.1
99967.7
99967.3
99966.8
99966.2
99965.5
99964.8
99963.9
99963
99962.1
99961
99959.8
99958.6
99957.2
99955.8
99954.2
99952.5
99950.8
99948.8
99946.8
99944.6
99942.3
99939.8
99937.2
99934.4
99931.4
99928.3
99925
99921.4
99917.7
99913.7
99909.5
99905
99900.3
99895.3
99890
99884.5
99878.8
99873.4
99869.4
99831.6
99836.6
99843.7
99851
99858
99864.7
99871.1
99877.1
99882.9
99888.3
99893.4
99898.3
99902.9
99907.2
99911.3
99915.2
99918.9
99922.4
99925.7
99928.8
99931.7
99934.5
99937.2
99939.7
99942.1
99944.3
99946.5
99948.5
99950.4
99952.2
99953.9
99955.5
99957
99958.4
99959.7
99961
99962.2
99963.3
99964.3
99965.3
99966.2
99967
99967.7
99968.4
99969.1
99969.7
99970.2
99970.6
99971
99971.4
99971.7
99971.9
99972.1
99972.2
99972.3
99972.3
99972.2
99972.1
99971.9
99971.7
99971.4
99971.1
99970.7
99970.2
99969.7
99969.1
99968.4
99967.7
99966.8
99965.9
99965
99963.9
99962.8
99961.5
99960.2
99958.7
99957.2
99955.6
99953.8
99951.9
99949.9
99947.7
99945.4
99943
99940.3
99937.5
99934.6
99931.4
99928
99924.4
99920.6
99916.6
99912.2
99907.7
99902.8
99897.6
99892.2
99886.6
99881.2
99877.2
99844.6
99849.6
99856.5
99863.7
99870.6
99877.1
99883.2
99889
99894.5
99899.6
99904.4
99909
99913.2
99917.3
99921.1
99924.6
99928
99931.2
99934.2
99937
99939.7
99942.2
99944.6
99946.9
99949
99951
99952.9
99954.7
99956.4
99958
99959.5
99960.9
99962.3
99963.5
99964.7
99965.8
99966.9
99967.8
99968.7
99969.6
99970.4
99971.1
99971.8
99972.4
99972.9
99973.4
99973.9
99974.3
99974.7
99975
99975.2
99975.4
99975.6
99975.7
99975.7
99975.7
99975.7
99975.6
99975.4
99975.2
99975
99974.7
99974.3
99973.9
99973.4
99972.9
99972.3
99971.6
99970.9
99970.1
99969.2
99968.3
99967.2
99966.1
99964.9
99963.7
99962.3
99960.8
99959.2
99957.5
99955.6
99953.7
99951.6
99949.3
99946.9
99944.3
99941.6
99938.6
99935.5
99932.1
99928.5
99924.7
99920.5
99916.1
99911.4
99906.4
99901.1
99895.6
99890.2
99886.3
99859.6
99864.5
99871.4
99878.3
99885
99891.2
99897
99902.5
99907.6
99912.3
99916.7
99920.9
99924.8
99928.4
99931.8
99935
99938
99940.8
99943.5
99946
99948.3
99950.5
99952.6
99954.6
99956.4
99958.2
99959.8
99961.4
99962.8
99964.2
99965.5
99966.7
99967.9
99968.9
99970
99970.9
99971.8
99972.6
99973.4
99974.1
99974.8
99975.4
99976
99976.5
99977
99977.4
99977.8
99978.2
99978.5
99978.7
99978.9
99979.1
99979.2
99979.3
99979.4
99979.4
99979.3
99979.2
99979.1
99978.9
99978.7
99978.5
99978.1
99977.8
99977.4
99976.9
99976.4
99975.8
99975.2
99974.5
99973.8
99972.9
99972
99971.1
99970
99968.9
99967.7
99966.4
99965
99963.5
99961.9
99960.2
99958.3
99956.3
99954.2
99951.9
99949.4
99946.7
99943.9
99940.8
99937.4
99933.9
99930
99925.9
99921.4
99916.6
99911.5
99906
99900.8
99896.9
99877.2
99882
99888.6
99895.3
99901.6
99907.4
99912.8
99917.7
99922.3
99926.6
99930.5
99934.1
99937.5
99940.6
99943.6
99946.3
99948.9
99951.2
99953.5
99955.6
99957.5
99959.4
99961.1
99962.8
99964.3
99965.7
99967.1
99968.4
99969.6
99970.7
99971.8
99972.8
99973.7
99974.6
99975.5
99976.2
99977
99977.7
99978.3
99978.9
99979.4
99979.9
99980.4
99980.8
99981.2
99981.6
99981.9
99982.2
99982.4
99982.6
99982.8
99982.9
99983
99983.1
99983.2
99983.2
99983.1
99983
99982.9
99982.8
99982.6
99982.4
99982.1
99981.9
99981.5
99981.1
99980.7
99980.2
99979.7
99979.1
99978.5
99977.8
99977.1
99976.3
99975.4
99974.5
99973.5
99972.4
99971.3
99970
99968.6
99967.2
99965.6
99963.9
99962.1
99960.1
99958
99955.7
99953.2
99950.5
99947.5
99944.3
99940.8
99937
99932.9
99928.4
99923.5
99918.3
99913.2
99909.4
99897.8
99902.4
99908.7
99915
99920.7
99926
99930.7
99935
99938.9
99942.4
99945.7
99948.6
99951.4
99953.9
99956.3
99958.5
99960.5
99962.4
99964.1
99965.8
99967.3
99968.8
99970.1
99971.4
99972.6
99973.7
99974.8
99975.7
99976.7
99977.5
99978.4
99979.1
99979.9
99980.6
99981.2
99981.8
99982.3
99982.9
99983.4
99983.8
99984.2
99984.6
99985
99985.3
99985.6
99985.9
99986.1
99986.3
99986.5
99986.7
99986.8
99986.9
99987
99987
99987.1
99987.1
99987
99987
99986.9
99986.8
99986.7
99986.5
99986.3
99986.1
99985.8
99985.5
99985.2
99984.8
99984.4
99984
99983.5
99983
99982.4
99981.8
99981.1
99980.4
99979.6
99978.8
99977.8
99976.9
99975.8
99974.7
99973.4
99972.1
99970.6
99969
99967.3
99965.5
99963.4
99961.2
99958.8
99956.1
99953.1
99949.8
99946.2
99942.2
99937.7
99932.9
99928
99924.3
99922.6
99927
99932.7
99938.2
99943
99947.2
99951
99954.3
99957.2
99959.8
99962.2
99964.4
99966.4
99968.2
99969.8
99971.4
99972.8
99974.1
99975.3
99976.5
99977.6
99978.6
99979.5
99980.4
99981.2
99982
99982.7
99983.4
99984
99984.6
99985.2
99985.7
99986.2
99986.6
99987.1
99987.5