/*--------------------------------*- C++ -*----------------------------------*\
| =========                 |                                                 |
| \\      /  F ield         | OpenFOAM: The Open Source CFD Toolbox           |
|  \\    /   O peration     | Version:  2406                                  |
|   \\  /    A nd           | Website:  www.openfoam.com                      |
|    \\/     M anipulation  |                                                 |
\*---------------------------------------------------------------------------*/
FoamFile
{
    version     2.0;
    format      ascii;
    arch        "LSB;label=32;scalar=64";
    class       surfaceScalarField;
    location    "2.64e-05";
    object      phi;
}
// * * * * * * * * * * * * * * * * * * * * * * * * * * * * * * * * * * * * * //

dimensions      [1 0 -1 0 0 0 0];

oriented        oriented;

internalField   nonuniform List<scalar> 
7860
(
-6.24261e-07
3.33811e-06
-4.42772e-07
2.71148e-06
-2.379e-07
2.37223e-06
-1.50361e-07
2.12872e-06
-1.13297e-07
1.93164e-06
-9.33237e-08
1.76775e-06
-7.98613e-08
1.62911e-06
-6.96858e-08
1.50987e-06
-6.16001e-08
1.40578e-06
-5.50037e-08
1.31377e-06
-4.95209e-08
1.23159e-06
-4.48914e-08
1.15756e-06
-4.09291e-08
1.09041e-06
-3.75001e-08
1.02914e-06
-3.44731e-08
9.72939e-07
-3.18252e-08
9.21168e-07
-2.94649e-08
8.73307e-07
-2.73461e-08
8.28919e-07
-2.54333e-08
7.87639e-07
-2.36974e-08
7.49154e-07
-2.21142e-08
7.13198e-07
-2.06634e-08
6.79542e-07
-1.93276e-08
6.47987e-07
-1.80928e-08
6.1836e-07
-1.6947e-08
5.90508e-07
-1.58806e-08
5.64295e-07
-1.48847e-08
5.39602e-07
-1.39518e-08
5.1632e-07
-1.3075e-08
4.94355e-07
-1.22485e-08
4.7362e-07
-1.14672e-08
4.54038e-07
-1.07268e-08
4.35539e-07
-1.00235e-08
4.18059e-07
-9.35369e-09
4.0154e-07
-8.71415e-09
3.85929e-07
-8.10188e-09
3.71178e-07
-7.51424e-09
3.57244e-07
-6.94888e-09
3.44087e-07
-6.40371e-09
3.3167e-07
-5.87684e-09
3.19958e-07
-5.36653e-09
3.08921e-07
-4.87124e-09
2.9853e-07
-4.39004e-09
2.88759e-07
-3.92058e-09
2.79578e-07
-3.45925e-09
2.70961e-07
-3.00435e-09
2.62895e-07
-2.55526e-09
2.5537e-07
-2.11098e-09
2.48372e-07
-1.67038e-09
2.41889e-07
-1.23226e-09
2.35908e-07
-7.95392e-10
2.30421e-07
-3.58527e-10
2.25419e-07
7.95752e-11
2.20895e-07
5.20157e-10
2.16845e-07
9.64455e-10
2.13263e-07
1.41375e-09
2.10147e-07
1.86934e-09
2.07496e-07
2.33264e-09
2.05309e-07
2.80509e-09
2.03589e-07
3.28826e-09
2.02339e-07
3.78378e-09
2.01562e-07
4.29341e-09
2.01266e-07
4.81897e-09
2.01459e-07
5.36245e-09
2.0215e-07
5.92597e-09
2.03351e-07
6.51183e-09
2.05075e-07
7.12258e-09
2.0734e-07
7.76103e-09
2.10162e-07
8.43022e-09
2.13563e-07
9.13367e-09
2.17566e-07
9.87522e-09
2.22198e-07
1.06592e-08
2.2749e-07
1.14905e-08
2.33475e-07
1.23747e-08
2.40193e-07
1.33181e-08
2.47686e-07
1.43279e-08
2.56003e-07
1.54126e-08
2.65201e-07
1.65819e-08
2.75341e-07
1.78475e-08
2.86495e-07
1.92229e-08
2.98744e-07
2.07244e-08
3.12181e-07
2.23716e-08
3.26914e-07
2.41883e-08
3.43066e-07
2.6204e-08
3.60784e-07
2.84547e-08
3.80238e-07
3.09863e-08
4.01631e-07
3.38573e-08
4.25207e-07
3.71427e-08
4.51262e-07
4.09401e-08
4.80162e-07
4.53755e-08
5.12366e-07
5.06104e-08
5.48465e-07
5.68708e-08
5.89233e-07
6.42618e-08
6.3571e-07
7.28048e-08
6.8939e-07
8.20068e-08
7.52427e-07
9.08324e-08
8.27982e-07
9.8951e-08
9.20468e-07
9.98242e-08
1.03555e-06
-6.34222e-08
1.18843e-06
1.60556e-06
-1.63631e-06
2.54579e-06
-1.92308e-06
2.08777e-06
-1.64392e-06
1.91355e-06
-1.34489e-06
1.80048e-06
-1.1125e-06
1.69499e-06
-9.38693e-07
1.59256e-06
-8.06741e-07
1.4952e-06
-7.04041e-07
1.40426e-06
-6.22146e-07
1.32006e-06
-5.55434e-07
1.24241e-06
-5.0008e-07
1.17086e-06
-4.53415e-07
1.10487e-06
-4.13532e-07
1.04391e-06
-3.79054e-07
9.87492e-07
-3.48992e-07
9.3516e-07
-3.22466e-07
8.86522e-07
-2.98907e-07
8.41222e-07
-2.77842e-07
7.98948e-07
-2.58892e-07
7.59429e-07
-2.41753e-07
7.22423e-07
-2.26175e-07
6.87721e-07
-2.1195e-07
6.55135e-07
-1.98905e-07
6.24499e-07
-1.86897e-07
5.95666e-07
-1.75808e-07
5.68504e-07
-1.65535e-07
5.42893e-07
-1.55991e-07
5.18728e-07
-1.47096e-07
4.95912e-07
-1.38784e-07
4.7436e-07
-1.30998e-07
4.53993e-07
-1.23686e-07
4.3474e-07
-1.16805e-07
4.16536e-07
-1.10316e-07
3.99322e-07
-1.04184e-07
3.83044e-07
-9.83757e-08
3.67653e-07
-9.28632e-08
3.53103e-07
-8.76207e-08
3.39354e-07
-8.26258e-08
3.26367e-07
-7.78585e-08
3.14108e-07
-7.33007e-08
3.02545e-07
-6.89356e-08
2.91648e-07
-6.47483e-08
2.8139e-07
-6.07255e-08
2.71747e-07
-5.68465e-08
2.62681e-07
-5.30846e-08
2.5416e-07
-4.9424e-08
2.46182e-07
-4.58557e-08
2.38743e-07
-4.23708e-08
2.31828e-07
-3.89595e-08
2.25426e-07
-3.56119e-08
2.19524e-07
-3.2318e-08
2.14114e-07
-2.90679e-08
2.09186e-07
-2.58519e-08
2.04735e-07
-2.26605e-08
2.00755e-07
-1.94844e-08
1.97242e-07
-1.63141e-08
1.94193e-07
-1.31399e-08
1.91608e-07
-9.95164e-09
1.89485e-07
-6.73877e-09
1.87826e-07
-3.49017e-09
1.86635e-07
-1.94261e-10
1.85916e-07
3.16098e-09
1.85675e-07
6.58812e-09
1.85919e-07
1.01004e-08
1.86659e-07
1.37119e-08
1.87905e-07
1.74378e-08
1.8967e-07
2.12947e-08
1.91969e-07
2.53008e-08
1.9482e-07
2.94761e-08
1.98242e-07
3.38428e-08
2.02257e-07
3.84258e-08
2.06891e-07
4.32526e-08
2.12173e-07
4.8354e-08
2.18132e-07
5.37649e-08
2.24806e-07
5.95248e-08
2.32234e-07
6.56789e-08
2.4046e-07
7.22795e-08
2.49534e-07
7.93872e-08
2.59512e-07
8.70735e-08
2.70457e-07
9.54224e-08
2.82439e-07
1.04534e-07
2.95537e-07
1.14529e-07
3.09843e-07
1.25553e-07
3.25457e-07
1.37786e-07
3.42495e-07
1.51454e-07
3.61089e-07
1.66833e-07
3.81388e-07
1.84291e-07
4.03563e-07
2.04294e-07
4.27808e-07
2.27473e-07
4.54341e-07
2.54683e-07
4.83403e-07
2.87121e-07
5.15254e-07
3.26478e-07
5.5015e-07
3.75464e-07
5.88305e-07
4.38012e-07
6.29774e-07
5.20172e-07
6.74267e-07
6.29766e-07
7.20827e-07
7.68086e-07
7.67721e-07
8.79662e-07
8.15303e-07
6.4415e-07
8.87117e-07
1.22819e-06
-1.93246e-06
2.05489e-06
-2.45295e-06
1.69509e-06
-2.29029e-06
1.57815e-06
-2.02222e-06
1.51571e-06
-1.77415e-06
1.4571e-06
-1.56341e-06
1.39551e-06
-1.38698e-06
1.33215e-06
-1.239e-06
1.26884e-06
-1.1141e-06
1.20689e-06
-1.00782e-06
1.1471e-06
-9.16614e-07
1.08994e-06
-8.37695e-07
1.03562e-06
-7.6886e-07
9.84174e-07
-7.0837e-07
9.35578e-07
-6.54842e-07
8.89731e-07
-6.07166e-07
8.46507e-07
-5.6445e-07
8.05762e-07
-5.25972e-07
7.6735e-07
-4.91142e-07
7.31126e-07
-4.59472e-07
6.96952e-07
-4.30552e-07
6.64696e-07
-4.04038e-07
6.34236e-07
-3.79644e-07
6.05457e-07
-3.57127e-07
5.78253e-07
-3.36279e-07
5.52526e-07
-3.16921e-07
5.28186e-07
-2.98897e-07
5.0515e-07
-2.82069e-07
4.83342e-07
-2.66319e-07
4.62691e-07
-2.51543e-07
4.43134e-07
-2.37652e-07
4.24609e-07
-2.24565e-07
4.07062e-07
-2.12211e-07
3.90443e-07
-2.00524e-07
3.74704e-07
-1.89445e-07
3.59804e-07
-1.78921e-07
3.45701e-07
-1.68906e-07
3.3236e-07
-1.59359e-07
3.19746e-07
-1.50241e-07
3.07829e-07
-1.41516e-07
2.96579e-07
-1.33154e-07
2.8597e-07
-1.25122e-07
2.75978e-07
-1.17394e-07
2.66581e-07
-1.09936e-07
2.57733e-07
-1.02706e-07
2.49396e-07
-9.56794e-08
2.41579e-07
-8.8835e-08
2.34288e-07
-8.21534e-08
2.27507e-07
-7.5615e-08
2.21224e-07
-6.92001e-08
2.15429e-07
-6.28894e-08
2.10113e-07
-5.66642e-08
2.05267e-07
-5.05061e-08
2.00886e-07
-4.43974e-08
1.96963e-07
-3.83203e-08
1.93495e-07
-3.22569e-08
1.90479e-07
-2.61887e-08
1.87913e-07
-2.00963e-08
1.85797e-07
-1.39596e-08
1.84132e-07
-7.75781e-09
1.82921e-07
-1.46929e-09
1.82167e-07
4.92835e-09
1.81876e-07
1.14585e-08
1.82054e-07
1.81457e-08
1.82709e-07
2.50161e-08
1.83852e-07
3.20981e-08
1.85493e-07
3.94223e-08
1.87646e-07
4.70223e-08
1.90325e-07
5.49352e-08
1.93548e-07
6.32016e-08
1.97333e-07
7.18666e-08
2.01702e-07
8.09802e-08
2.06679e-07
9.05981e-08
2.1229e-07
1.00783e-07
2.18565e-07
1.11605e-07
2.25534e-07
1.23146e-07
2.33235e-07
1.35496e-07
2.41706e-07
1.48764e-07
2.5099e-07
1.63072e-07
2.61133e-07
1.78566e-07
2.72187e-07
1.95416e-07
2.84207e-07
2.13825e-07
2.97252e-07
2.34036e-07
3.11387e-07
2.56341e-07
3.26681e-07
2.81094e-07
3.43202e-07
3.08738e-07
3.61023e-07
3.39811e-07
3.80213e-07
3.74999e-07
4.00831e-07
4.15164e-07
4.22921e-07
4.61406e-07
4.46493e-07
5.15142e-07
4.71502e-07
5.78181e-07
4.97812e-07
6.52825e-07
5.25144e-07
7.41864e-07
5.52999e-07
8.48122e-07
5.80575e-07
9.71924e-07
6.0675e-07
1.09903e-06
6.30621e-07
1.14857e-06
6.54947e-07
7.82422e-07
7.03775e-07
9.76486e-07
-2.07161e-06
1.71095e-06
-2.70264e-06
1.41541e-06
-2.61956e-06
1.32703e-06
-2.4016e-06
1.28731e-06
-2.17956e-06
1.25185e-06
-1.97715e-06
1.21329e-06
-1.79702e-06
1.17168e-06
-1.63774e-06
1.12814e-06
-1.49707e-06
1.08371e-06
-1.37269e-06
1.03923e-06
-1.26247e-06
9.953e-07
-1.16448e-06
9.52356e-07
-1.07703e-06
9.10691e-07
-9.98704e-07
8.70491e-07
-9.28257e-07
8.31866e-07
-8.6465e-07
7.94867e-07
-8.06995e-07
7.59504e-07
-7.54541e-07
7.25762e-07
-7.0665e-07
6.93605e-07
-6.62776e-07
6.62986e-07
-6.2245e-07
6.33849e-07
-5.85274e-07
6.06136e-07
-5.50901e-07
5.79783e-07
-5.19035e-07
5.5473e-07
-4.89417e-07
5.30917e-07
-4.61819e-07
5.08286e-07
-4.36042e-07
4.86779e-07
-4.1191e-07
4.66344e-07
-3.89268e-07
4.46929e-07
-3.67981e-07
4.28486e-07
-3.47929e-07
4.1097e-07
-3.29002e-07
3.94337e-07
-3.11104e-07
3.78549e-07
-2.94145e-07
3.63566e-07
-2.78046e-07
3.49355e-07
-2.62735e-07
3.35882e-07
-2.48147e-07
3.23117e-07
-2.34224e-07
3.11031e-07
-2.20912e-07
2.99597e-07
-2.08161e-07
2.88792e-07
-1.95923e-07
2.78592e-07
-1.84156e-07
2.68976e-07
-1.7282e-07
2.59925e-07
-1.61869e-07
2.51384e-07
-1.51253e-07
2.43315e-07
-1.40936e-07
2.35737e-07
-1.30888e-07
2.28662e-07
-1.21078e-07
2.22076e-07
-1.11479e-07
2.15969e-07
-1.0206e-07
2.1033e-07
-9.27948e-08
2.05152e-07
-8.36553e-08
2.00425e-07
-7.46157e-08
1.96145e-07
-6.56503e-08
1.92305e-07
-5.67334e-08
1.88902e-07
-4.78388e-08
1.85933e-07
-3.89396e-08
1.83396e-07
-3.0008e-08
1.8129e-07
-2.10151e-08
1.79617e-07
-1.19313e-08
1.78377e-07
-2.72581e-09
1.77574e-07
6.633e-09
1.77212e-07
1.61781e-08
1.77296e-07
2.59442e-08
1.77832e-07
3.59682e-08
1.78829e-07
4.62897e-08
1.80296e-07
5.69517e-08
1.82242e-07
6.80009e-08
1.84681e-07
7.94884e-08
1.87625e-07
9.14703e-08
1.91089e-07
1.04008e-07
1.9509e-07
1.17169e-07
1.99647e-07
1.31028e-07
2.04778e-07
1.45669e-07
2.10506e-07
1.61184e-07
2.16853e-07
1.77679e-07
2.23845e-07
1.95274e-07
2.31507e-07
2.14103e-07
2.39867e-07
2.34324e-07
2.48954e-07
2.56115e-07
2.58798e-07
2.79682e-07
2.69427e-07
3.05267e-07
2.80872e-07
3.33149e-07
2.93158e-07
3.63658e-07
3.06308e-07
3.97179e-07
3.20339e-07
4.34169e-07
3.35256e-07
4.75164e-07
3.51049e-07
5.20802e-07
3.67687e-07
5.7183e-07
3.85107e-07
6.29124e-07
4.03199e-07
6.93689e-07
4.21795e-07
7.66649e-07
4.40647e-07
8.49194e-07
4.59404e-07
9.42407e-07
4.77597e-07
1.04665e-06
4.94632e-07
1.15901e-06
5.09897e-07
1.26169e-06
5.23316e-07
1.27157e-06
5.38243e-07
8.52418e-07
5.75647e-07
8.00162e-07
-2.14828e-06
1.45061e-06
-2.84169e-06
1.20169e-06
-2.80904e-06
1.13087e-06
-2.63004e-06
1.10313e-06
-2.43602e-06
1.08004e-06
-2.25185e-06
1.05464e-06
-2.08178e-06
1.02643e-06
-1.92609e-06
9.95999e-07
-1.78412e-06
9.64017e-07
-1.65491e-06
9.31096e-07
-1.53738e-06
8.97743e-07
-1.43045e-06
8.64371e-07
-1.33306e-06
8.31302e-07
-1.24425e-06
7.98785e-07
-1.1631e-06
7.67003e-07
-1.08881e-06
7.36089e-07
-1.02065e-06
7.06137e-07
-9.57973e-07
6.77206e-07
-9.00199e-07
6.49331e-07
-8.46829e-07
6.22526e-07
-7.97413e-07
5.96794e-07
-7.51558e-07
5.72123e-07
-7.08914e-07
5.48496e-07
-6.69171e-07
5.2589e-07
-6.32058e-07
5.04278e-07
-5.9733e-07
4.8363e-07
-5.6477e-07
4.63915e-07
-5.34185e-07
4.45101e-07
-5.05401e-07
4.27156e-07
-4.78264e-07
4.10048e-07
-4.52634e-07
3.93747e-07
-4.28385e-07
3.78222e-07
-4.05404e-07
3.63445e-07
-3.83586e-07
3.49387e-07
-3.62837e-07
3.36022e-07
-3.43072e-07
3.23326e-07
-3.24211e-07
3.11273e-07
-3.06184e-07
2.99841e-07
-2.88922e-07
2.89008e-07
-2.72366e-07
2.78756e-07
-2.56455e-07
2.69065e-07
-2.41138e-07
2.59918e-07
-2.26364e-07
2.51299e-07
-2.12077e-07
2.43145e-07
-1.98221e-07
2.35416e-07
-1.84752e-07
2.28147e-07
-1.7163e-07
2.21351e-07
-1.58818e-07
2.15019e-07
-1.46276e-07
2.09139e-07
-1.3397e-07
2.03702e-07
-1.21863e-07
1.98702e-07
-1.09921e-07
1.94131e-07
-9.81104e-08
1.89983e-07
-8.63989e-08
1.86253e-07
-7.47531e-08
1.82938e-07
-6.31395e-08
1.80033e-07
-5.15236e-08
1.77538e-07
-3.987e-08
1.75451e-07
-2.81423e-08
1.73772e-07
-1.63034e-08
1.72503e-07
-4.31487e-09
1.71645e-07
7.86271e-09
1.712e-07
2.02704e-08
1.71174e-07
3.29515e-08
1.71569e-07
4.59515e-08
1.72393e-07
5.93194e-08
1.73651e-07
7.31077e-08
1.75352e-07
8.73734e-08
1.77504e-07
1.02178e-07
1.80116e-07
1.17588e-07
1.832e-07
1.33677e-07
1.86766e-07
1.50524e-07
1.90827e-07
1.68216e-07
1.95396e-07
1.86848e-07
2.00486e-07
2.06527e-07
2.06112e-07
2.2737e-07
2.12288e-07
2.49509e-07
2.19027e-07
2.73092e-07
2.26344e-07
2.98284e-07
2.3425e-07
3.25273e-07
2.42758e-07
3.54269e-07
2.51874e-07
3.8551e-07
2.61602e-07
4.19265e-07
2.71942e-07
4.55839e-07
2.82884e-07
4.95575e-07
2.94408e-07
5.3886e-07
3.06482e-07
5.86126e-07
3.19054e-07
6.3785e-07
3.32052e-07
6.94555e-07
3.45374e-07
7.56798e-07
3.58884e-07
8.2515e-07
3.72405e-07
9.00166e-07
3.8571e-07
9.82319e-07
3.98524e-07
1.07185e-06
4.10521e-07
1.16822e-06
4.21349e-07
1.26776e-06
4.30723e-07
1.35223e-06
4.38899e-07
1.33864e-06
4.49069e-07
8.91181e-07
4.79169e-07
6.67952e-07
-2.19546e-06
1.24352e-06
-2.92796e-06
1.0308e-06
-2.92861e-06
9.72213e-07
-2.77764e-06
9.51608e-07
-2.60639e-06
9.35704e-07
-2.4398e-06
9.18211e-07
-2.28247e-06
8.98437e-07
-2.13519e-06
8.76657e-07
-1.99793e-06
8.53289e-07
-1.87039e-06
8.28741e-07
-1.75209e-06
8.03383e-07
-1.6425e-06
7.77539e-07
-1.541e-06
7.51486e-07
-1.44702e-06
7.25452e-07
-1.35996e-06
6.99628e-07
-1.27925e-06
6.74165e-07
-1.20435e-06
6.49184e-07
-1.13476e-06
6.24777e-07
-1.07003e-06
6.01013e-07
-1.00974e-06
5.77942e-07
-9.53486e-07
5.556e-07
-9.00933e-07
5.34008e-07
-8.51758e-07
5.1318e-07
-8.05673e-07
4.93119e-07
-7.62419e-07
4.73823e-07
-7.2176e-07
4.55285e-07
-6.8348e-07
4.37494e-07
-6.47386e-07
4.20437e-07
-6.13298e-07
4.04098e-07
-5.81058e-07
3.88461e-07
-5.5052e-07
3.73507e-07
-5.21549e-07
3.59218e-07
-4.94025e-07
3.45576e-07
-4.67836e-07
3.32562e-07
-4.42878e-07
3.20157e-07
-4.19056e-07
3.08344e-07
-3.96284e-07
2.97105e-07
-3.7448e-07
2.86424e-07
-3.53569e-07
2.76285e-07
-3.33481e-07
2.66671e-07
-3.1415e-07
2.5757e-07
-2.95516e-07
2.48966e-07
-2.7752e-07
2.40848e-07
-2.60099e-07
2.33145e-07
-2.4319e-07
2.25819e-07
-2.26746e-07
2.18917e-07
-2.10719e-07
2.12456e-07
-1.95063e-07
2.06427e-07
-1.79734e-07
2.0082e-07
-1.64688e-07
1.95628e-07
-1.49885e-07
1.90845e-07
-1.35284e-07
1.86462e-07
-1.20844e-07
1.82476e-07
-1.06527e-07
1.78882e-07
-9.22934e-08
1.75676e-07
-7.81028e-08
1.72854e-07
-6.39146e-08
1.70416e-07
-4.9687e-08
1.68359e-07
-3.53778e-08
1.66683e-07
-2.09433e-08
1.65387e-07
-6.33925e-09
1.64474e-07
8.48019e-09
1.63943e-07
2.35625e-08
1.63798e-07
3.89572e-08
1.64042e-07
5.47169e-08
1.64677e-07
7.08971e-08
1.65709e-07
8.75574e-08
1.67142e-07
1.04762e-07
1.68981e-07
1.22578e-07
1.71233e-07
1.4108e-07
1.73904e-07
1.60347e-07
1.77e-07
1.80464e-07
1.80529e-07
2.01523e-07
1.84496e-07
2.23626e-07
1.88909e-07
2.46881e-07
1.93774e-07
2.71409e-07
1.99095e-07
2.97343e-07
2.04877e-07
3.24828e-07
2.11123e-07
3.54023e-07
2.17833e-07
3.85103e-07
2.25003e-07
4.18263e-07
2.32627e-07
4.53713e-07
2.40693e-07
4.91687e-07
2.49182e-07
5.32437e-07
2.58067e-07
5.76236e-07
2.67311e-07
6.23377e-07
2.76866e-07
6.74171e-07
2.86667e-07
7.28942e-07
2.96634e-07
7.88019e-07
3.06666e-07
8.51718e-07
3.16641e-07
9.20333e-07
3.26412e-07
9.94107e-07
3.35809e-07
1.07319e-06
3.44642e-07
1.1575e-06
3.52702e-07
1.24631e-06
3.59786e-07
1.33581e-06
3.65775e-07
1.40784e-06
3.71027e-07
1.37948e-06
3.78397e-07
9.14803e-07
4.03282e-07
5.6415e-07
-2.22676e-06
1.07304e-06
-2.98552e-06
8.89718e-07
-3.00918e-06
8.40349e-07
-2.87847e-06
8.24401e-07
-2.72473e-06
8.12978e-07
-2.57279e-06
8.00496e-07
-2.42727e-06
7.8622e-07
-2.28907e-06
7.70268e-07
-2.15837e-06
7.52894e-07
-2.03514e-06
7.34367e-07
-1.9192e-06
7.14945e-07
-1.81031e-06
6.94865e-07
-1.70816e-06
6.74342e-07
-1.61239e-06
6.53565e-07
-1.52266e-06
6.32698e-07
-1.43857e-06
6.11882e-07
-1.35977e-06
5.91235e-07
-1.28588e-06
5.70855e-07
-1.21657e-06
5.50823e-07
-1.15151e-06
5.31203e-07
-1.09038e-06
5.12047e-07
-1.03289e-06
4.93393e-07
-9.78775e-07
4.75272e-07
-9.2778e-07
4.57705e-07
-8.79675e-07
4.40706e-07
-8.34246e-07
4.24284e-07
-7.91292e-07
4.08443e-07
-7.5063e-07
3.93183e-07
-7.1209e-07
3.78502e-07
-6.75515e-07
3.64394e-07
-6.40763e-07
3.50852e-07
-6.07702e-07
3.37867e-07
-5.76209e-07
3.2543e-07
-5.46169e-07
3.1353e-07
-5.17477e-07
3.02156e-07
-4.90032e-07
2.91296e-07
-4.63745e-07
2.80941e-07
-4.38528e-07
2.71077e-07
-4.14302e-07
2.61695e-07
-3.90992e-07
2.52782e-07
-3.68527e-07
2.44329e-07
-3.46841e-07
2.36326e-07
-3.25871e-07
2.28761e-07
-3.05548e-07
2.21559e-07
-2.85805e-07
2.14687e-07
-2.66592e-07
2.08201e-07
-2.47855e-07
2.02121e-07
-2.29543e-07
1.96437e-07
-2.11606e-07
1.91143e-07
-1.93998e-07
1.86232e-07
-1.76669e-07
1.81697e-07
-1.59576e-07
1.77534e-07
-1.42673e-07
1.73738e-07
-1.25914e-07
1.70304e-07
-1.09257e-07
1.67229e-07
-9.26539e-08
1.6451e-07
-7.60607e-08
1.62144e-07
-5.94305e-08
1.60131e-07
-4.27161e-08
1.58468e-07
-2.58693e-08
1.57156e-07
-8.84102e-09
1.56194e-07
8.4194e-09
1.55582e-07
2.59642e-08
1.55321e-07
4.38479e-08
1.55413e-07
6.21274e-08
1.55858e-07
8.08629e-08
1.5666e-07
1.00118e-07
1.57821e-07
1.1996e-07
1.59343e-07
1.40461e-07
1.61228e-07
1.61698e-07
1.6348e-07
1.83751e-07
1.66101e-07
2.06708e-07
1.69094e-07
2.30661e-07
1.72459e-07
2.5571e-07
1.76198e-07
2.81961e-07
1.80311e-07
3.0953e-07
1.84796e-07
3.38543e-07
1.8965e-07
3.69133e-07
1.94869e-07
4.01446e-07
2.00444e-07
4.35636e-07
2.06364e-07
4.7187e-07
2.12612e-07
5.10325e-07
2.19169e-07
5.5119e-07
2.26008e-07
5.94663e-07
2.33096e-07
6.4095e-07
2.4039e-07
6.90262e-07
2.47839e-07
7.42814e-07
2.55383e-07
7.98813e-07
2.62947e-07
8.5846e-07
2.70448e-07
9.21933e-07
2.77787e-07
9.89378e-07
2.84855e-07
1.06089e-06
2.91531e-07
1.1365e-06
2.97687e-07
1.21605e-06
3.03191e-07
1.29877e-06
3.07927e-07
1.3809e-06
3.11852e-07
1.44433e-06
3.15337e-07
1.40617e-06
3.20898e-07
9.30233e-07
3.41804e-07
4.79992e-07
-2.24867e-06
9.29108e-07
-3.02594e-06
7.70419e-07
-3.06611e-06
7.28373e-07
-2.95033e-06
7.15681e-07
-2.80997e-06
7.07216e-07
-2.66977e-06
6.98061e-07
-2.53425e-06
6.87507e-07
-2.40433e-06
6.75586e-07
-2.28024e-06
6.62455e-07
-2.16205e-06
6.48293e-07
-2.0497e-06
6.33279e-07
-1.94311e-06
6.17583e-07
-1.84212e-06
6.01365e-07
-1.74653e-06
5.84772e-07
-1.65613e-06
5.67936e-07
-1.57068e-06
5.50976e-07
-1.48993e-06
5.33997e-07
-1.41363e-06
5.17088e-07
-1.34152e-06
5.00327e-07
-1.27337e-06
4.83782e-07
-1.20892e-06
4.67508e-07
-1.14795e-06
4.51551e-07
-1.09024e-06
4.35947e-07
-1.03557e-06
4.20729e-07
-9.83754e-07
4.05918e-07
-9.34597e-07
3.91534e-07
-8.87926e-07
3.77589e-07
-8.43572e-07
3.64094e-07
-8.01381e-07
3.51055e-07
-7.61207e-07
3.38474e-07
-7.22918e-07
3.26353e-07
-6.86385e-07
3.1469e-07
-6.51492e-07
3.03482e-07
-6.18124e-07
2.92725e-07
-5.86177e-07
2.82416e-07
-5.55553e-07
2.72546e-07
-5.26158e-07
2.63112e-07
-4.97906e-07
2.54105e-07
-4.70717e-07
2.45519e-07
-4.44512e-07
2.37346e-07
-4.19219e-07
2.29581e-07
-3.94767e-07
2.22214e-07
-3.7109e-07
2.15241e-07
-3.48116e-07
2.08577e-07
-3.25778e-07
2.02195e-07
-3.04022e-07
1.96165e-07
-2.8279e-07
1.90501e-07
-2.6203e-07
1.85197e-07
-2.41686e-07
1.80248e-07
-2.21708e-07
1.75648e-07
-2.02044e-07
1.71391e-07
-1.82644e-07
1.67474e-07
-1.63459e-07
1.63892e-07
-1.44441e-07
1.60642e-07
-1.2554e-07
1.57719e-07
-1.06707e-07
1.55122e-07
-8.78934e-08
1.52848e-07
-6.90482e-08
1.50895e-07
-5.0121e-08
1.49261e-07
-3.10602e-08
1.47945e-07
-1.18132e-08
1.46946e-07
7.67393e-09
1.46263e-07
2.74567e-08
1.45896e-07
4.75924e-08
1.45846e-07
6.81411e-08
1.46112e-07
8.91654e-08
1.46694e-07
1.10731e-07
1.47592e-07
1.32906e-07
1.48807e-07
1.55765e-07
1.50339e-07
1.79382e-07
1.52188e-07
2.03839e-07
1.54352e-07
2.2922e-07
1.56831e-07
2.55615e-07
1.59623e-07
2.83119e-07
1.62724e-07
3.11832e-07
1.66131e-07
3.41863e-07
1.69837e-07
3.73323e-07
1.73834e-07
4.06334e-07
1.78114e-07
4.41022e-07
1.82663e-07
4.77518e-07
1.87466e-07
5.15964e-07
1.92503e-07
5.56503e-07
1.97751e-07
5.99285e-07
2.03182e-07
6.44461e-07
2.0876e-07
6.92184e-07
2.14447e-07
7.42605e-07
2.20196e-07
7.95872e-07
2.25955e-07
8.52123e-07
2.31662e-07
9.11481e-07
2.37251e-07
9.74048e-07
2.42648e-07
1.0399e-06
2.47773e-07
1.10909e-06
2.52542e-07
1.18159e-06
2.5687e-07
1.25724e-06
2.60672e-07
1.33529e-06
2.63877e-07
1.41203e-06
2.66484e-07
1.46939e-06
2.68842e-07
1.42446e-06
2.73151e-07
9.40817e-07
2.90882e-07
4.10107e-07
-2.26458e-06
8.05155e-07
-3.05541e-06
6.67595e-07
-3.10777e-06
6.31592e-07
-3.00323e-06
6.21305e-07
-2.87316e-06
6.14888e-07
-2.74225e-06
6.08032e-07
-2.61495e-06
6.00082e-07
-2.49214e-06
5.91026e-07
-2.37405e-06
5.80963e-07
-2.26075e-06
5.70016e-07
-2.15227e-06
5.58307e-07
-2.04857e-06
5.45958e-07
-1.94958e-06
5.33087e-07
-1.85519e-06
5.19805e-07
-1.76528e-06
5.06215e-07
-1.6797e-06
4.92414e-07
-1.59827e-06
4.78489e-07
-1.52082e-06
4.64516e-07
-1.44718e-06
4.50567e-07
-1.37716e-06
4.36701e-07
-1.31059e-06
4.22972e-07
-1.24726e-06
4.09426e-07
-1.18702e-06
3.96103e-07
-1.1297e-06
3.83035e-07
-1.07511e-06
3.70252e-07
-1.02312e-06
3.57774e-07
-9.73556e-07
3.45622e-07
-9.26283e-07
3.3381e-07
-8.8116e-07
3.2235e-07
-8.38057e-07
3.1125e-07
-7.96851e-07
3.00516e-07
-7.57425e-07
2.90153e-07
-7.19667e-07
2.80162e-07
-6.8347e-07
2.70546e-07
-6.48733e-07
2.61303e-07
-6.1536e-07
2.52432e-07
-5.83262e-07
2.43931e-07
-5.52353e-07
2.35796e-07
-5.22553e-07
2.28024e-07
-4.93784e-07
2.20612e-07
-4.65972e-07
2.13555e-07
-4.39046e-07
2.06849e-07
-4.12937e-07
2.00489e-07
-3.87572e-07
1.94388e-07
-3.62887e-07
1.88524e-07
-3.38826e-07
1.82976e-07
-3.15328e-07
1.77756e-07
-2.92339e-07
1.72859e-07
-2.698e-07
1.68281e-07
-2.47658e-07
1.64016e-07
-2.25859e-07
1.60062e-07
-2.0435e-07
1.56414e-07
-1.83078e-07
1.53068e-07
-1.61992e-07
1.50022e-07
-1.4104e-07
1.47272e-07
-1.20169e-07
1.44816e-07
-9.93292e-08
1.42652e-07
-7.84664e-08
1.40776e-07
-5.75278e-08
1.39188e-07
-3.64594e-08
1.37886e-07
-1.52062e-08
1.36867e-07
6.28773e-09
1.3613e-07
2.80799e-08
1.35675e-07
5.02294e-08
1.355e-07
7.27971e-08
1.35604e-07
9.58463e-08
1.35986e-07
1.19443e-07
1.36644e-07
1.43656e-07
1.37577e-07
1.68557e-07
1.38783e-07
1.9422e-07
1.40259e-07
2.20723e-07
1.42003e-07
2.48148e-07
1.44011e-07
2.76578e-07
1.46278e-07
3.06102e-07
1.488e-07
3.36813e-07
1.51568e-07
3.68808e-07
1.54575e-07
4.02189e-07
1.57811e-07
4.37062e-07
1.61264e-07
4.73535e-07
1.64919e-07
5.11721e-07
1.68759e-07
5.51734e-07
1.72763e-07
5.93692e-07
1.7691e-07
6.37714e-07
1.81171e-07
6.83918e-07
1.85516e-07
7.32418e-07
1.8991e-07
7.83325e-07
1.94314e-07
8.36746e-07
1.98683e-07
8.92775e-07
2.02971e-07
9.51495e-07
2.07126e-07
1.01297e-06
2.11094e-07
1.07726e-06
2.14816e-07
1.14437e-06
2.18234e-07
1.2143e-06
2.2129e-07
1.28688e-06
2.23928e-07
1.3614e-06
2.26105e-07
1.43418e-06
2.27837e-07
1.48717e-06
2.29444e-07
1.43742e-06
2.32842e-07
9.48337e-07
2.47954e-07
3.50972e-07
-2.27649e-06
6.96648e-07
-3.07747e-06
5.77553e-07
-3.13906e-06
5.4668e-07
-3.04311e-06
5.38247e-07
-2.92105e-06
5.33303e-07
-2.79751e-06
5.2809e-07
-2.67689e-06
5.22017e-07
-2.56002e-06
5.15052e-07
-2.44711e-06
5.07258e-07
-2.33824e-06
4.98718e-07
-2.23344e-06
4.8952e-07
-2.13271e-06
4.79751e-07
-2.03601e-06
4.69496e-07
-1.94328e-06
4.58841e-07
-1.85446e-06
4.47864e-07
-1.76943e-06
4.36641e-07
-1.6881e-06
4.25242e-07
-1.61033e-06
4.13731e-07
-1.536e-06
4.02169e-07
-1.46498e-06
3.90607e-07
-1.39712e-06
3.79095e-07
-1.33228e-06
3.67673e-07
-1.27033e-06
3.5638e-07
-1.21113e-06
3.45248e-07
-1.15454e-06
3.34307e-07
-1.10043e-06
3.23579e-07
-1.04867e-06
3.13087e-07
-9.99131e-07
3.02847e-07
-9.51696e-07
2.92873e-07
-9.06248e-07
2.83178e-07
-8.62677e-07
2.73771e-07
-8.20874e-07
2.64659e-07
-7.80738e-07
2.55849e-07
-7.4217e-07
2.47344e-07
-7.05073e-07
2.39148e-07
-6.69359e-07
2.31261e-07
-6.3494e-07
2.23684e-07
-6.01735e-07
2.16418e-07
-5.69665e-07
2.09462e-07
-5.38654e-07
2.02814e-07
-5.08628e-07
1.96472e-07
-4.79516e-07
1.90434e-07
-4.5125e-07
1.84699e-07
-4.23758e-07
1.79174e-07
-3.96977e-07
1.73846e-07
-3.70851e-07
1.68799e-07
-3.4532e-07
1.64042e-07
-3.20326e-07
1.59571e-07
-2.9581e-07
1.55383e-07
-2.71717e-07
1.51474e-07
-2.4799e-07
1.47841e-07
-2.24574e-07
1.44481e-07
-2.01415e-07
1.41391e-07
-1.78459e-07
1.38568e-07
-1.55653e-07
1.3601e-07
-1.32943e-07
1.33714e-07
-1.10275e-07
1.31678e-07
-8.75955e-08
1.29899e-07
-6.4849e-08
1.28376e-07
-4.19805e-08
1.27106e-07
-1.89337e-08
1.26087e-07
4.34861e-09
1.25318e-07
2.79247e-08
1.24796e-07
5.18541e-08
1.24521e-07
7.61981e-08
1.24488e-07
1.01019e-07
1.24697e-07
1.26383e-07
1.25145e-07
1.52357e-07
1.25829e-07
1.7901e-07
1.26745e-07
2.06414e-07
1.27891e-07
2.34643e-07
1.29261e-07
2.63772e-07
1.30852e-07
2.93882e-07
1.32656e-07
3.25055e-07
1.34667e-07
3.57374e-07
1.36877e-07
3.90929e-07
1.39276e-07
4.25808e-07
1.41854e-07
4.62104e-07
1.44598e-07
4.99911e-07
1.47493e-07
5.39325e-07
1.50522e-07
5.80442e-07
1.53668e-07
6.23361e-07
1.56907e-07
6.68175e-07
1.60217e-07
7.14979e-07
1.6357e-07
7.63862e-07
1.66937e-07
8.14911e-07
1.70287e-07
8.68208e-07
1.73584e-07
9.23823e-07
1.76793e-07
9.81819e-07
1.79872e-07
1.04225e-06
1.82784e-07
1.10514e-06
1.85485e-07
1.17053e-06
1.87934e-07
1.2384e-06
1.90091e-07
1.3086e-06
1.91919e-07
1.38045e-06
1.93391e-07
1.45029e-06
1.94529e-07
1.50009e-06
1.9562e-07
1.44684e-06
1.98326e-07
9.5382e-07
2.11218e-07
3.00136e-07
-2.28557e-06
6.00313e-07
-3.09433e-06
4.97607e-07
-3.16302e-06
4.71188e-07
-3.07374e-06
4.64236e-07
-2.95796e-06
4.60387e-07
-2.84029e-06
4.56382e-07
-2.72507e-06
4.51699e-07
-2.6131e-06
4.46296e-07
-2.50457e-06
4.40215e-07
-2.39955e-06
4.33512e-07
-2.29807e-06
4.2625e-07
-2.20012e-06
4.18493e-07
-2.1057e-06
4.10303e-07
-2.01478e-06
4.01745e-07
-1.92729e-06
3.92879e-07
-1.84319e-06
3.83763e-07
-1.76238e-06
3.74454e-07
-1.68478e-06
3.65003e-07
-1.6103e-06
3.55459e-07
-1.53884e-06
3.45868e-07
-1.4703e-06
3.3627e-07
-1.40455e-06
3.26702e-07
-1.34149e-06
3.172e-07
-1.28101e-06
3.07791e-07
-1.223e-06
2.98505e-07
-1.16734e-06
2.89363e-07
-1.11394e-06
2.80387e-07
-1.06267e-06
2.71595e-07
-1.01344e-06
2.63002e-07
-9.66141e-07
2.54621e-07
-9.20676e-07
2.46463e-07
-8.76948e-07
2.38539e-07
-8.34864e-07
2.30854e-07
-7.94333e-07
2.23417e-07
-7.55268e-07
2.1623e-07
-7.17582e-07
2.09299e-07
-6.81196e-07
2.02625e-07
-6.46031e-07
1.96211e-07
-6.12011e-07
1.90057e-07
-5.79063e-07
1.84165e-07
-5.47114e-07
1.78533e-07
-5.16095e-07
1.73162e-07
-4.85939e-07
1.68052e-07
-4.56576e-07
1.63108e-07
-4.27947e-07
1.58326e-07
-3.99997e-07
1.53791e-07
-3.72663e-07
1.49508e-07
-3.45888e-07
1.45477e-07
-3.19613e-07
1.41693e-07
-2.9378e-07
1.38154e-07
-2.68332e-07
1.34858e-07
-2.43213e-07
1.31802e-07
-2.18368e-07
1.28984e-07
-1.93742e-07
1.26402e-07
-1.6928e-07
1.24053e-07
-1.44927e-07
1.21935e-07
-1.2063e-07
1.20045e-07
-9.63333e-08
1.18383e-07
-7.19807e-08
1.16944e-07
-4.75162e-08
1.15728e-07
-2.28831e-08
1.14732e-07
1.97619e-09
1.13953e-07
2.71198e-08
1.1339e-07
5.26068e-08
1.13039e-07
7.84977e-08
1.12899e-07
1.04854e-07
1.12967e-07
1.3174e-07
1.13239e-07
1.59221e-07
1.13711e-07
1.87363e-07
1.14381e-07
2.16236e-07
1.15243e-07
2.45909e-07
1.16292e-07
2.76454e-07
1.17524e-07
3.07943e-07
1.1893e-07
3.40453e-07
1.20504e-07
3.74062e-07
1.22238e-07
4.08848e-07
1.24122e-07
4.44893e-07
1.26145e-07
4.82278e-07
1.28294e-07
5.21083e-07
1.30557e-07
5.61393e-07
1.32918e-07
6.0329e-07
1.35359e-07
6.46856e-07
1.37863e-07
6.92171e-07
1.40409e-07
7.39314e-07
1.42975e-07
7.88358e-07
1.45536e-07
8.39375e-07
1.48066e-07
8.92431e-07
1.5054e-07
9.47586e-07
1.52928e-07
1.00489e-06
1.552e-07
1.06439e-06
1.57328e-07
1.12613e-06
1.5928e-07
1.19012e-06
1.61027e-07
1.25637e-06
1.6254e-07
1.32474e-06
1.63794e-07
1.39456e-06
1.64772e-07
1.4622e-06
1.65499e-07
1.50963e-06
1.66228e-07
1.45382e-06
1.68391e-07
9.57896e-07
1.79362e-07
2.55823e-07
-2.2926e-06
5.13684e-07
-3.1074e-06
4.25724e-07
-3.18163e-06
4.03244e-07
-3.09757e-06
3.97515e-07
-2.98676e-06
3.94504e-07
-2.87377e-06
3.91413e-07
-2.76291e-06
3.87785e-07
-2.65496e-06
3.83576e-07
-2.55009e-06
3.78813e-07
-2.44834e-06
3.73537e-07
-2.34975e-06
3.67793e-07
-2.2543e-06
3.61628e-07
-2.162e-06
3.55087e-07
-2.07282e-06
3.4822e-07
-1.98674e-06
3.41072e-07
-1.90369e-06
3.33689e-07
-1.82362e-06
3.26114e-07
-1.74647e-06
3.1839e-07
-1.67217e-06
3.10555e-07
-1.60063e-06
3.02647e-07
-1.53179e-06
2.947e-07
-1.46554e-06
2.86747e-07
-1.4018e-06
2.78815e-07
-1.34049e-06
2.70933e-07
-1.28149e-06
2.63124e-07
-1.22474e-06
2.55409e-07
-1.17012e-06
2.47809e-07
-1.11755e-06
2.4034e-07
-1.06694e-06
2.33017e-07
-1.0182e-06
2.25854e-07
-9.71235e-07
2.18862e-07
-9.25965e-07
2.12051e-07
-8.82304e-07
2.05429e-07
-8.40169e-07
1.99004e-07
-7.99478e-07
1.92782e-07
-7.60154e-07
1.86768e-07
-7.22119e-07
1.80964e-07
-6.85301e-07
1.75375e-07
-6.49626e-07
1.70003e-07
-6.15025e-07
1.6485e-07
-5.81426e-07
1.59916e-07
-5.48764e-07
1.55203e-07
-5.16971e-07
1.5071e-07
-4.85983e-07
1.46347e-07
-4.55745e-07
1.42113e-07
-4.26201e-07
1.38095e-07
-3.97289e-07
1.34294e-07
-3.68952e-07
1.3071e-07
-3.4113e-07
1.27339e-07
-3.13765e-07
1.24181e-07
-2.868e-07
1.21234e-07
-2.60179e-07
1.18495e-07
-2.33846e-07
1.15963e-07
-2.07746e-07
1.13636e-07
-1.81823e-07
1.11511e-07
-1.56022e-07
1.09588e-07
-1.3029e-07
1.07863e-07
-1.0457e-07
1.06334e-07
-7.88068e-08
1.05e-07
-5.29438e-08
1.03858e-07
-2.69241e-08
1.02906e-07
-6.90595e-10
1.02141e-07
2.58147e-08
1.01562e-07
5.265e-08
1.01166e-07
7.98747e-08
1.00949e-07
1.07549e-07
1.00908e-07
1.35735e-07
1.0104e-07
1.64496e-07
1.01342e-07
1.93895e-07
1.01808e-07
2.23998e-07
1.02435e-07
2.54872e-07
1.03217e-07
2.86584e-07
1.04149e-07
3.19201e-07
1.05223e-07
3.52795e-07
1.06433e-07
3.87436e-07
1.0777e-07
4.23197e-07
1.09225e-07
4.6015e-07
1.10789e-07
4.98368e-07
1.12449e-07
5.37924e-07
1.14195e-07
5.78891e-07
1.16012e-07
6.21343e-07
1.17885e-07
6.65352e-07
1.198e-07
7.10986e-07
1.21739e-07
7.58314e-07
1.23683e-07
8.07398e-07
1.25614e-07
8.58304e-07
1.2751e-07
9.1109e-07
1.29352e-07
9.65808e-07
1.31117e-07
1.02251e-06
1.32783e-07
1.08123e-06
1.34327e-07
1.14202e-06
1.35727e-07
1.20491e-06
1.36961e-07
1.26988e-06
1.38009e-07
1.33685e-06
1.38853e-07
1.40513e-06
1.39481e-07
1.47112e-06
1.39921e-07
1.51678e-06