/*--------------------------------*- C++ -*----------------------------------*\
| =========                 |                                                 |
| \\      /  F ield         | OpenFOAM: The Open Source CFD Toolbox           |
|  \\    /   O peration     | Version:  2406                                  |
|   \\  /    A nd           | Website:  www.openfoam.com                      |
|    \\/     M anipulation  |                                                 |
\*---------------------------------------------------------------------------*/
FoamFile
{
    version     2.0;
    format      ascii;
    arch        "LSB;label=32;scalar=64";
    class       volScalarField;
    location    "2.64e-05";
    object      Qdot;
}
// * * * * * * * * * * * * * * * * * * * * * * * * * * * * * * * * * * * * * //

dimensions      [1 -1 -3 0 0 0 0];

internalField   nonuniform List<scalar> 
4000
(
2.26865e-188
6.90564e-187
7.75498e-186
7.83447e-185
7.82579e-184
7.80814e-183
7.79025e-182
7.77306e-181
7.75666e-180
7.74104e-179
7.72618e-178
7.71205e-177
7.69863e-176
7.68591e-175
7.67384e-174
7.66243e-173
7.65163e-172
7.64144e-171
7.63182e-170
7.62277e-169
7.61426e-168
7.60626e-167
7.59877e-166
7.59176e-165
7.58521e-164
7.5791e-163
7.57342e-162
7.56815e-161
7.56327e-160
7.55876e-159
7.5546e-158
7.55079e-157
7.54729e-156
7.5441e-155
7.5412e-154
7.53857e-153
7.5362e-152
7.53407e-151
7.53217e-150
7.53048e-149
7.52899e-148
7.52769e-147
7.52655e-146
7.52557e-145
7.52473e-144
7.52403e-143
7.52343e-142
7.52295e-141
7.52255e-140
7.52223e-139
7.52198e-138
7.52178e-137
7.52162e-136
7.5215e-135
7.52139e-134
7.5213e-133
7.5212e-132
7.52109e-131
7.52096e-130
7.5208e-129
7.52059e-128
7.52034e-127
7.52002e-126
7.51963e-125
7.51916e-124
7.51861e-123
7.51795e-122
7.51719e-121
7.51632e-120
7.51533e-119
7.51421e-118
7.51296e-117
7.51156e-116
7.51001e-115
7.5083e-114
7.50643e-113
7.50439e-112
7.50217e-111
7.49977e-110
7.49719e-109
7.4944e-108
7.49142e-107
7.48824e-106
7.48484e-105
7.48123e-104
7.4774e-103
7.47335e-102
7.46906e-101
7.46455e-100
7.4598e-99
7.45481e-98
6.93258e-97
6.81078e-96
6.80579e-95
6.80026e-94
6.79393e-93
6.78324e-92
6.73949e-91
6.32596e-90
1.59227e-89
2.37296e-188
7.27222e-187
8.23928e-186
8.3919e-185
8.44808e-184
8.4927e-183
8.5353e-182
8.57699e-181
8.61794e-180
8.65817e-179
8.69772e-178
8.73662e-177
8.77488e-176
8.81252e-175
8.84958e-174
8.88606e-173
8.922e-172
8.9574e-171
8.99228e-170
9.02666e-169
9.06056e-168
9.09399e-167
9.12696e-166
9.15949e-165
9.19159e-164
9.22326e-163
9.25452e-162
9.28538e-161
9.31585e-160
9.34593e-159
9.37564e-158
9.40498e-157
9.43395e-156
9.46257e-155
9.49083e-154
9.51875e-153
9.54632e-152
9.57355e-151
9.60045e-150
9.62702e-149
9.65325e-148
9.67916e-147
9.70474e-146
9.73e-145
9.75493e-144
9.77954e-143
9.80383e-142
9.8278e-141
9.85144e-140
9.87476e-139
9.89776e-138
9.92043e-137
9.94278e-136
9.9648e-135
9.98649e-134
1.00078e-132
1.00289e-131
1.00496e-130
1.00699e-129
1.00899e-128
1.01096e-127
1.0129e-126
1.01479e-125
1.01666e-124
1.01849e-123
1.02028e-122
1.02203e-121
1.02375e-120
1.02544e-119
1.02708e-118
1.02869e-117
1.03026e-116
1.0318e-115
1.03329e-114
1.03475e-113
1.03616e-112
1.03754e-111
1.03888e-110
1.04018e-109
1.04143e-108
1.04265e-107
1.04382e-106
1.04496e-105
1.04605e-104
1.0471e-103
1.0481e-102
1.04907e-101
1.04999e-100
1.05087e-99
1.0517e-98
1.0525e-97
9.84311e-97
9.63905e-96
9.64923e-95
9.6548e-94
9.65917e-93
9.65715e-92
9.60731e-91
9.01712e-90
2.18106e-89
2.29949e-188
7.05708e-187
8.00813e-186
8.16975e-185
8.23831e-184
8.29627e-183
8.35289e-182
8.40921e-181
8.46533e-180
8.52126e-179
8.57699e-178
8.6325e-177
8.68779e-176
8.74284e-175
8.79763e-174
8.85217e-173
8.90644e-172
8.96043e-171
9.01414e-170
9.06754e-169
9.12065e-168
9.17344e-167
9.22592e-166
9.27807e-165
9.32989e-164
9.38136e-163
9.4325e-162
9.48328e-161
9.53371e-160
9.58378e-159
9.63348e-158
9.68281e-157
9.73176e-156
9.78034e-155
9.82853e-154
9.87634e-153
9.92376e-152
9.97078e-151
1.00174e-149
1.00636e-148
1.01095e-147
1.01549e-146
1.01999e-145
1.02445e-144
1.02887e-143
1.03325e-142
1.03758e-141
1.04188e-140
1.04613e-139
1.05034e-138
1.05451e-137
1.05864e-136
1.06272e-135
1.06677e-134
1.07077e-133
1.07472e-132
1.07864e-131
1.08251e-130
1.08634e-129
1.09012e-128
1.09386e-127
1.09756e-126
1.10121e-125
1.10482e-124
1.10839e-123
1.11191e-122
1.11539e-121
1.11883e-120
1.12222e-119
1.12556e-118
1.12886e-117
1.13212e-116
1.13533e-115
1.13849e-114
1.14161e-113
1.14468e-112
1.14771e-111
1.15069e-110
1.15362e-109
1.15651e-108
1.15934e-107
1.16214e-106
1.16488e-105
1.16758e-104
1.17022e-103
1.17282e-102
1.17538e-101
1.17788e-100
1.18033e-99
1.18273e-98
1.18509e-97
1.084e-96
1.08798e-95
1.0905e-94
1.09247e-93
1.0943e-92
1.0954e-91
1.09106e-90
1.02521e-89
2.47982e-89
2.18279e-188
6.70905e-187
7.62449e-186
7.78979e-185
7.8666e-184
7.9334e-183
7.99901e-182
8.06444e-181
8.12978e-180
8.19504e-179
8.26021e-178
8.32527e-177
8.39022e-176
8.45503e-175
8.5197e-174
8.58422e-173
8.64857e-172
8.71274e-171
8.77672e-170
8.84049e-169
8.90405e-168
8.96737e-167
9.03045e-166
9.09327e-165
9.15582e-164
9.2181e-163
9.28008e-162
9.34176e-161
9.40313e-160
9.46417e-159
9.52488e-158
9.58523e-157
9.64523e-156
9.70487e-155
9.76412e-154
9.823e-153
9.88147e-152
9.93955e-151
9.99721e-150
1.00545e-148
1.01113e-147
1.01677e-146
1.02236e-145
1.02791e-144
1.03341e-143
1.03887e-142
1.04429e-141
1.04965e-140
1.05497e-139
1.06025e-138
1.06547e-137
1.07065e-136
1.07578e-135
1.08086e-134
1.08589e-133
1.09087e-132
1.09581e-131
1.10069e-130
1.10553e-129
1.11032e-128
1.11506e-127
1.11975e-126
1.12439e-125
1.12899e-124
1.13354e-123
1.13803e-122
1.14248e-121
1.14689e-120
1.15124e-119
1.15555e-118
1.15981e-117
1.16403e-116
1.1682e-115
1.17232e-114
1.17639e-113
1.18042e-112
1.18441e-111
1.18835e-110
1.19224e-109
1.19609e-108
1.19989e-107
1.20365e-106
1.20736e-105
1.21103e-104
1.21465e-103
1.21823e-102
1.22176e-101
1.22525e-100
1.2287e-99
1.2321e-98
1.23546e-97
1.13537e-96
1.13648e-95
1.13936e-94
1.14226e-93
1.14502e-92
1.14703e-91
1.14334e-90
1.07512e-89
2.60213e-89
2.09178e-188
6.43466e-187
7.31869e-186
7.4835e-185
7.5635e-184
7.63399e-183
7.70343e-182
7.7728e-181
7.84219e-180
7.9116e-179
7.98102e-178
8.05044e-177
8.11984e-176
8.18922e-175
8.25855e-174
8.32783e-173
8.39703e-172
8.46615e-171
8.53517e-170
8.60408e-169
8.67286e-168
8.74149e-167
8.80997e-166
8.87827e-165
8.94639e-164
9.0143e-163
9.08199e-162
9.14946e-161
9.21667e-160
9.28363e-159
9.35031e-158
9.4167e-157
9.48278e-156
9.54855e-155
9.61398e-154
9.67907e-153
9.7438e-152
9.80816e-151
9.87213e-150
9.93571e-149
9.99888e-148
1.00616e-146
1.01239e-145
1.01858e-144
1.02472e-143
1.03082e-142
1.03687e-141
1.04287e-140
1.04882e-139
1.05473e-138
1.06058e-137
1.06638e-136
1.07213e-135
1.07782e-134
1.08347e-133
1.08906e-132
1.0946e-131
1.10008e-130
1.10551e-129
1.11088e-128
1.1162e-127
1.12146e-126
1.12667e-125
1.13182e-124
1.13692e-123
1.14197e-122
1.14696e-121
1.15189e-120
1.15677e-119
1.16159e-118
1.16637e-117
1.17108e-116
1.17575e-115
1.18036e-114
1.18492e-113
1.18943e-112
1.19389e-111
1.1983e-110
1.20266e-109
1.20697e-108
1.21123e-107
1.21545e-106
1.21961e-105
1.22374e-104
1.22781e-103
1.23184e-102
1.23583e-101
1.23977e-100
1.24367e-99
1.24753e-98
1.25135e-97
1.15173e-96
1.15202e-95
1.15519e-94
1.15853e-93
1.16173e-92
1.16417e-91
1.16083e-90
1.09195e-89
2.64356e-89
2.08783e-188
6.42274e-187
7.3054e-186
7.47019e-185
7.55033e-184
7.62096e-183
7.69057e-182
7.7601e-181
7.82966e-180
7.89924e-179
7.96884e-178
8.03844e-177
8.10803e-176
8.17759e-175
8.24712e-174
8.3166e-173
8.38602e-172
8.45535e-171
8.5246e-170
8.59373e-169
8.66275e-168
8.73163e-167
8.80035e-166
8.86892e-165
8.9373e-164
9.00549e-163
9.07347e-162
9.14122e-161
9.20874e-160
9.27601e-159
9.34301e-158
9.40973e-157
9.47615e-156
9.54227e-155
9.60807e-154
9.67353e-153
9.73865e-152
9.80341e-151
9.86779e-150
9.93179e-149
9.9954e-148
1.00586e-146
1.01214e-145
1.01837e-144
1.02456e-143
1.03071e-142
1.03681e-141
1.04287e-140
1.04887e-139
1.05483e-138
1.06074e-137
1.06661e-136
1.07242e-135
1.07818e-134
1.08389e-133
1.08954e-132
1.09515e-131
1.1007e-130
1.1062e-129
1.11165e-128
1.11705e-127
1.12239e-126
1.12768e-125
1.13292e-124
1.1381e-123
1.14323e-122
1.14831e-121
1.15334e-120
1.15831e-119
1.16323e-118
1.1681e-117
1.17293e-116
1.1777e-115
1.18242e-114
1.18709e-113
1.19171e-112
1.19628e-111
1.20081e-110
1.20529e-109
1.20973e-108
1.21411e-107
1.21846e-106
1.22276e-105
1.22702e-104
1.23123e-103
1.23541e-102
1.23954e-101
1.24364e-100
1.24769e-99
1.25171e-98
1.25569e-97
1.15623e-96
1.15626e-95
1.15962e-94
1.16311e-93
1.16648e-92
1.16908e-91
1.16588e-90
1.09685e-89
2.65558e-89
2.08787e-188
6.42287e-187
7.30555e-186
7.47035e-185
7.55048e-184
7.62112e-183
7.69073e-182
7.76025e-181
7.82981e-180
7.89939e-179
7.96898e-178
8.03858e-177
8.10816e-176
8.17772e-175
8.24725e-174
8.31673e-173
8.38614e-172
8.45547e-171
8.52471e-170
8.59385e-169
8.66286e-168
8.73174e-167
8.80047e-166
8.86904e-165
8.93742e-164
9.00561e-163
9.0736e-162
9.14136e-161
9.20889e-160
9.27617e-159
9.34318e-158
9.40991e-157
9.47635e-156
9.54249e-155
9.60831e-154
9.67379e-153
9.73893e-152
9.80372e-151
9.86813e-150
9.93217e-149
9.99581e-148
1.0059e-146
1.01219e-145
1.01843e-144
1.02462e-143
1.03078e-142
1.03688e-141
1.04294e-140
1.04896e-139
1.05492e-138
1.06084e-137
1.06671e-136
1.07253e-135
1.0783e-134
1.08402e-133
1.08969e-132
1.0953e-131
1.10087e-130
1.10638e-129
1.11184e-128
1.11725e-127
1.12261e-126
1.12792e-125
1.13317e-124
1.13837e-123
1.14352e-122
1.14862e-121
1.15366e-120
1.15866e-119
1.1636e-118
1.1685e-117
1.17334e-116
1.17814e-115
1.18288e-114
1.18758e-113
1.19223e-112
1.19684e-111
1.20139e-110
1.20591e-109
1.21037e-108
1.2148e-107
1.21918e-106
1.22352e-105
1.22781e-104
1.23207e-103
1.23629e-102
1.24046e-101
1.2446e-100
1.2487e-99
1.25277e-98
1.25679e-97
1.15739e-96
1.1566e-95
1.16078e-94
1.16432e-93
1.16773e-92
1.17039e-91
1.16723e-90
1.09816e-89
2.6587e-89
2.08801e-188
6.42331e-187
7.30605e-186
7.47085e-185
7.55099e-184
7.62162e-183
7.69122e-182
7.76075e-181
7.8303e-180
7.89987e-179
7.96946e-178
8.03904e-177
8.10862e-176
8.17818e-175
8.2477e-174
8.31716e-173
8.38657e-172
8.45589e-171
8.52513e-170
8.59425e-169
8.66326e-168
8.73213e-167
8.80086e-166
8.86942e-165
8.9378e-164
9.00598e-163
9.07396e-162
9.14172e-161
9.20925e-160
9.27652e-159
9.34353e-158
9.41026e-157
9.4767e-156
9.54283e-155
9.60865e-154
9.67414e-153
9.73928e-152
9.80406e-151
9.86848e-150
9.93252e-149
9.99616e-148
1.00594e-146
1.01222e-145
1.01846e-144
1.02466e-143
1.03081e-142
1.03692e-141
1.04298e-140
1.049e-139
1.05497e-138
1.06089e-137
1.06676e-136
1.07258e-135
1.07835e-134
1.08407e-133
1.08974e-132
1.09536e-131
1.10093e-130
1.10645e-129
1.11191e-128
1.11732e-127
1.12268e-126
1.12799e-125
1.13325e-124
1.13846e-123
1.14361e-122
1.14871e-121
1.15376e-120
1.15876e-119
1.16371e-118
1.16861e-117
1.17347e-116
1.17827e-115
1.18302e-114
1.18773e-113
1.19239e-112
1.197e-111
1.20156e-110
1.20609e-109
1.21056e-108
1.215e-107
1.21939e-106
1.22374e-105
1.22805e-104
1.23232e-103
1.23654e-102
1.24073e-101
1.24489e-100
1.249e-99
1.25308e-98
1.25712e-97
1.15773e-96
1.15696e-95
1.16112e-94
1.16467e-93
1.1681e-92
1.17077e-91
1.16763e-90
1.09854e-89
2.65951e-89
2.08814e-188
6.42371e-187
7.30649e-186
7.47131e-185
7.55144e-184
7.62208e-183
7.69167e-182
7.7612e-181
7.83074e-180
7.90031e-179
7.96989e-178
8.03947e-177
8.10905e-176
8.1786e-175
8.24811e-174
8.31757e-173
8.38697e-172
8.45629e-171
8.52551e-170
8.59464e-169
8.66364e-168
8.7325e-167
8.80122e-166
8.86977e-165
8.93815e-164
9.00633e-163
9.07431e-162
9.14206e-161
9.20958e-160
9.27685e-159
9.34386e-158
9.41058e-157
9.47702e-156
9.54315e-155
9.60897e-154
9.67445e-153
9.73959e-152
9.80438e-151
9.8688e-150
9.93283e-149
9.99648e-148
1.00597e-146
1.01226e-145
1.0185e-144
1.02469e-143
1.03085e-142
1.03696e-141
1.04302e-140
1.04903e-139
1.055e-138
1.06092e-137
1.06679e-136
1.07262e-135
1.07839e-134
1.08411e-133
1.08978e-132
1.0954e-131
1.10097e-130
1.10649e-129
1.11196e-128
1.11737e-127
1.12273e-126
1.12804e-125
1.1333e-124
1.13851e-123
1.14367e-122
1.14877e-121
1.15382e-120
1.15883e-119
1.16378e-118
1.16868e-117
1.17354e-116
1.17834e-115
1.1831e-114
1.18781e-113
1.19247e-112
1.19709e-111
1.20166e-110
1.20618e-109
1.21066e-108
1.2151e-107
1.2195e-106
1.22385e-105
1.22816e-104
1.23244e-103
1.23667e-102
1.24087e-101
1.24502e-100
1.24914e-99
1.25323e-98
1.25727e-97
1.15789e-96
1.15712e-95
1.16127e-94
1.16483e-93
1.16826e-92
1.17094e-91
1.1678e-90
1.09871e-89
2.65978e-89
2.08825e-188
6.42405e-187
7.30688e-186
7.4717e-185
7.55184e-184
7.62247e-183
7.69207e-182
7.76159e-181
7.83113e-180
7.9007e-179
7.97028e-178
8.03986e-177
8.10943e-176
8.17897e-175
8.24848e-174
8.31794e-173
8.38733e-172
8.45664e-171
8.52587e-170
8.59498e-169
8.66398e-168
8.73284e-167
8.80155e-166
8.8701e-165
8.93847e-164
9.00665e-163
9.07462e-162
9.14237e-161
9.20989e-160
9.27716e-159
9.34416e-158
9.41089e-157
9.47732e-156
9.54345e-155
9.60927e-154
9.67475e-153
9.73989e-152
9.80467e-151
9.86909e-150
9.93313e-149
9.99677e-148
1.006e-146
1.01229e-145
1.01853e-144
1.02472e-143
1.03088e-142
1.03699e-141
1.04305e-140
1.04907e-139
1.05503e-138
1.06096e-137
1.06683e-136
1.07265e-135
1.07842e-134
1.08415e-133
1.08982e-132
1.09544e-131
1.10101e-130
1.10653e-129
1.112e-128
1.11741e-127
1.12278e-126
1.12809e-125
1.13335e-124
1.13856e-123
1.14371e-122
1.14882e-121
1.15388e-120
1.15888e-119
1.16384e-118
1.16874e-117
1.1736e-116
1.1784e-115
1.18316e-114
1.18787e-113
1.19254e-112
1.19716e-111
1.20173e-110
1.20626e-109
1.21074e-108
1.21518e-107
1.21958e-106
1.22394e-105
1.22825e-104
1.23253e-103
1.23677e-102
1.24096e-101
1.24512e-100
1.24925e-99
1.25333e-98
1.25738e-97
1.158e-96
1.15724e-95
1.16138e-94
1.16494e-93
1.16838e-92
1.17105e-91
1.16791e-90
1.09881e-89
2.65993e-89
2.08835e-188
6.42435e-187
7.30723e-186
7.47205e-185
7.55219e-184
7.62282e-183
7.69242e-182
7.76194e-181
7.83148e-180
7.90104e-179
7.97062e-178
8.0402e-177
8.10976e-176
8.17931e-175
8.24881e-174
8.31826e-173
8.38765e-172
8.45696e-171
8.52618e-170
8.5953e-169
8.66429e-168
8.73315e-167
8.80185e-166
8.8704e-165
8.93877e-164
9.00694e-163
9.07491e-162
9.14266e-161
9.21017e-160
9.27744e-159
9.34444e-158
9.41116e-157
9.4776e-156
9.54373e-155
9.60954e-154
9.67502e-153
9.74016e-152
9.80494e-151
9.86936e-150
9.9334e-149
9.99705e-148
1.00603e-146
1.01231e-145
1.01855e-144
1.02475e-143
1.03091e-142
1.03702e-141
1.04308e-140
1.0491e-139
1.05506e-138
1.06099e-137
1.06686e-136
1.07268e-135
1.07846e-134
1.08418e-133
1.08985e-132
1.09547e-131
1.10105e-130
1.10657e-129
1.11203e-128
1.11745e-127
1.12281e-126
1.12813e-125
1.13339e-124
1.1386e-123
1.14376e-122
1.14887e-121
1.15392e-120
1.15893e-119
1.16388e-118
1.16879e-117
1.17365e-116
1.17846e-115
1.18322e-114
1.18793e-113
1.1926e-112
1.19722e-111
1.20179e-110
1.20632e-109
1.21081e-108
1.21525e-107
1.21965e-106
1.22401e-105
1.22833e-104
1.23261e-103
1.23685e-102
1.24105e-101
1.24521e-100
1.24933e-99
1.25342e-98
1.25747e-97
1.15809e-96
1.15733e-95
1.16146e-94
1.16503e-93
1.16847e-92
1.17114e-91
1.168e-90
1.0989e-89
2.66004e-89
2.08844e-188
6.42462e-187
7.30752e-186
7.47235e-185
7.55249e-184
7.62313e-183
7.69273e-182
7.76224e-181
7.83178e-180
7.90135e-179
7.97092e-178
8.0405e-177
8.11006e-176
8.1796e-175
8.2491e-174
8.31855e-173
8.38794e-172
8.45725e-171
8.52646e-170
8.59557e-169
8.66456e-168
8.73342e-167
8.80213e-166
8.87067e-165
8.93903e-164
9.00721e-163
9.07517e-162
9.14292e-161
9.21043e-160
9.27769e-159
9.34469e-158
9.41141e-157
9.47784e-156
9.54397e-155
9.60979e-154
9.67527e-153
9.74041e-152
9.80519e-151
9.86961e-150
9.93365e-149
9.9973e-148
1.00605e-146
1.01234e-145
1.01858e-144
1.02478e-143
1.03093e-142
1.03704e-141
1.0431e-140
1.04912e-139
1.05509e-138
1.06101e-137
1.06689e-136
1.07271e-135
1.07848e-134
1.08421e-133
1.08988e-132
1.09551e-131
1.10108e-130
1.1066e-129
1.11207e-128
1.11748e-127
1.12285e-126
1.12816e-125
1.13343e-124
1.13864e-123
1.1438e-122
1.14891e-121
1.15396e-120
1.15897e-119
1.16393e-118
1.16884e-117
1.1737e-116
1.17851e-115
1.18327e-114
1.18798e-113
1.19265e-112
1.19727e-111
1.20185e-110
1.20638e-109
1.21087e-108
1.21532e-107
1.21972e-106
1.22408e-105
1.2284e-104
1.23268e-103
1.23692e-102
1.24112e-101
1.24528e-100
1.24941e-99
1.2535e-98
1.25755e-97
1.15817e-96
1.15741e-95
1.16154e-94
1.16511e-93
1.16854e-92
1.17122e-91
1.16808e-90
1.09897e-89
2.66014e-89
2.08851e-188
6.42484e-187
7.30778e-186
7.47261e-185
7.55276e-184
7.62339e-183
7.69299e-182
7.76251e-181
7.83205e-180
7.90161e-179
7.97118e-178
8.04076e-177
8.11032e-176
8.17986e-175
8.24936e-174
8.31881e-173
8.38819e-172
8.4575e-171
8.52671e-170
8.59582e-169
8.66481e-168
8.73366e-167
8.80236e-166
8.87091e-165
8.93927e-164
9.00744e-163
9.0754e-162
9.14315e-161
9.21066e-160
9.27792e-159
9.34492e-158
9.41164e-157
9.47807e-156
9.5442e-155
9.61001e-154
9.67549e-153
9.74063e-152
9.80541e-151
9.86983e-150
9.93387e-149
9.99752e-148
1.00608e-146
1.01236e-145
1.0186e-144
1.0248e-143
1.03096e-142
1.03706e-141
1.04313e-140
1.04915e-139
1.05512e-138
1.06104e-137
1.06691e-136
1.07274e-135
1.07851e-134
1.08424e-133
1.08991e-132
1.09553e-131
1.10111e-130
1.10663e-129
1.1121e-128
1.11752e-127
1.12288e-126
1.1282e-125
1.13346e-124
1.13867e-123
1.14383e-122
1.14894e-121
1.154e-120
1.15901e-119
1.16397e-118
1.16888e-117
1.17374e-116
1.17855e-115
1.18331e-114
1.18803e-113
1.1927e-112
1.19732e-111
1.2019e-110
1.20643e-109
1.21092e-108
1.21537e-107
1.21977e-106
1.22414e-105
1.22846e-104
1.23274e-103
1.23698e-102
1.24118e-101
1.24535e-100
1.24948e-99
1.25357e-98
1.25762e-97
1.15824e-96
1.15749e-95
1.16161e-94
1.16517e-93
1.16861e-92
1.17129e-91
1.16815e-90
1.09904e-89
2.66022e-89
2.08857e-188
6.42503e-187
7.308e-186
7.47284e-185
7.55298e-184
7.62362e-183
7.69321e-182
7.76273e-181
7.83227e-180
7.90183e-179
7.97141e-178
8.04098e-177
8.11054e-176
8.18008e-175
8.24958e-174
8.31903e-173
8.38841e-172
8.45772e-171
8.52693e-170
8.59603e-169
8.66502e-168
8.73387e-167
8.80257e-166
8.87111e-165
8.93947e-164
9.00764e-163
9.07561e-162
9.14335e-161
9.21086e-160
9.27812e-159
9.34511e-158
9.41183e-157
9.47826e-156
9.54439e-155
9.6102e-154
9.67568e-153
9.74082e-152
9.80561e-151
9.87003e-150
9.93407e-149
9.99772e-148
1.0061e-146
1.01238e-145
1.01862e-144
1.02482e-143
1.03098e-142
1.03709e-141
1.04315e-140
1.04917e-139
1.05514e-138
1.06106e-137
1.06693e-136
1.07276e-135
1.07853e-134
1.08426e-133
1.08993e-132
1.09556e-131
1.10113e-130
1.10665e-129
1.11212e-128
1.11754e-127
1.12291e-126
1.12823e-125
1.13349e-124
1.1387e-123
1.14386e-122
1.14897e-121
1.15403e-120
1.15904e-119
1.164e-118
1.16891e-117
1.17378e-116
1.17859e-115
1.18335e-114
1.18807e-113
1.19274e-112
1.19737e-111
1.20194e-110
1.20648e-109
1.21097e-108
1.21542e-107
1.21982e-106
1.22419e-105
1.22851e-104
1.23279e-103
1.23703e-102
1.24124e-101
1.2454e-100
1.24953e-99
1.25362e-98
1.25768e-97
1.1583e-96
1.15755e-95
1.16166e-94
1.16523e-93
1.16867e-92
1.17135e-91
1.16821e-90
1.09909e-89
2.66029e-89
2.08862e-188
6.4252e-187
7.30818e-186
7.47303e-185
7.55317e-184
7.6238e-183
7.6934e-182
7.76292e-181
7.83246e-180
7.90202e-179
7.9716e-178
8.04117e-177
8.11073e-176
8.18027e-175
8.24977e-174
8.31921e-173
8.3886e-172
8.4579e-171
8.52711e-170
8.59622e-169
8.6652e-168
8.73405e-167
8.80275e-166
8.87129e-165
8.93965e-164
9.00782e-163
9.07578e-162
9.14352e-161
9.21103e-160
9.27829e-159
9.34528e-158
9.412e-157
9.47843e-156
9.54456e-155
9.61037e-154
9.67585e-153
9.74099e-152
9.80578e-151
9.87019e-150
9.93423e-149
9.99789e-148
1.00611e-146
1.0124e-145
1.01864e-144
1.02484e-143
1.03099e-142
1.0371e-141
1.04317e-140
1.04919e-139
1.05516e-138
1.06108e-137
1.06695e-136
1.07278e-135
1.07855e-134
1.08428e-133
1.08996e-132
1.09558e-131
1.10115e-130
1.10668e-129
1.11215e-128
1.11757e-127
1.12293e-126
1.12825e-125
1.13352e-124
1.13873e-123
1.14389e-122
1.149e-121
1.15406e-120
1.15907e-119
1.16403e-118
1.16894e-117
1.17381e-116
1.17862e-115
1.18339e-114
1.1881e-113
1.19278e-112
1.1974e-111
1.20198e-110
1.20652e-109
1.21101e-108
1.21546e-107
1.21986e-106
1.22423e-105
1.22855e-104
1.23283e-103
1.23708e-102
1.24128e-101
1.24545e-100
1.24958e-99
1.25367e-98
1.25773e-97
1.15835e-96
1.1576e-95
1.16171e-94
1.16528e-93
1.16872e-92
1.17139e-91
1.16826e-90
1.09913e-89
2.66035e-89
2.08867e-188
6.42533e-187
7.30833e-186
7.47318e-185
7.55332e-184
7.62396e-183
7.69356e-182
7.76308e-181
7.83262e-180
7.90218e-179
7.97175e-178
8.04133e-177
8.11089e-176
8.18042e-175
8.24992e-174
8.31937e-173
8.38875e-172
8.45805e-171
8.52726e-170
8.59637e-169
8.66535e-168
8.7342e-167
8.8029e-166
8.87144e-165
8.9398e-164
9.00796e-163
9.07592e-162
9.14367e-161
9.21117e-160
9.27843e-159
9.34543e-158
9.41214e-157
9.47857e-156
9.5447e-155
9.61051e-154
9.67599e-153
9.74113e-152
9.80592e-151
9.87034e-150
9.93438e-149
9.99803e-148
1.00613e-146
1.01241e-145
1.01865e-144
1.02485e-143
1.03101e-142
1.03712e-141
1.04318e-140
1.0492e-139
1.05517e-138
1.0611e-137
1.06697e-136
1.0728e-135
1.07857e-134
1.0843e-133
1.08997e-132
1.0956e-131
1.10117e-130
1.10669e-129
1.11217e-128
1.11759e-127
1.12295e-126
1.12827e-125
1.13354e-124
1.13875e-123
1.14391e-122
1.14903e-121
1.15409e-120
1.1591e-119
1.16406e-118
1.16897e-117
1.17383e-116
1.17865e-115
1.18341e-114
1.18813e-113
1.19281e-112
1.19743e-111
1.20201e-110
1.20655e-109
1.21104e-108
1.21549e-107
1.2199e-106
1.22426e-105
1.22859e-104
1.23287e-103
1.23712e-102
1.24132e-101
1.24549e-100
1.24962e-99
1.25371e-98
1.25777e-97
1.15839e-96
1.15764e-95
1.16175e-94
1.16532e-93
1.16876e-92
1.17143e-91
1.16829e-90
1.09917e-89
2.66039e-89
2.0887e-188
6.42543e-187
7.30845e-186
7.4733e-185
7.55344e-184
7.62408e-183
7.69368e-182
7.7632e-181
7.83274e-180
7.9023e-179
7.97188e-178
8.04145e-177
8.11101e-176
8.18055e-175
8.25004e-174
8.31949e-173
8.38887e-172
8.45817e-171
8.52738e-170
8.59649e-169
8.66547e-168
8.73432e-167
8.80302e-166
8.87155e-165
8.93991e-164
9.00808e-163
9.07604e-162
9.14378e-161
9.21129e-160
9.27854e-159
9.34554e-158
9.41226e-157
9.47869e-156
9.54481e-155
9.61062e-154
9.67611e-153
9.74124e-152
9.80603e-151
9.87045e-150
9.93449e-149
9.99814e-148
1.00614e-146
1.01242e-145
1.01867e-144
1.02487e-143
1.03102e-142
1.03713e-141
1.0432e-140
1.04921e-139
1.05518e-138
1.06111e-137
1.06698e-136
1.07281e-135
1.07858e-134
1.08431e-133
1.08999e-132
1.09561e-131
1.10119e-130
1.10671e-129
1.11218e-128
1.1176e-127
1.12297e-126
1.12829e-125
1.13355e-124
1.13877e-123
1.14393e-122
1.14904e-121
1.15411e-120
1.15912e-119
1.16408e-118
1.16899e-117
1.17385e-116
1.17867e-115
1.18344e-114
1.18816e-113
1.19283e-112
1.19746e-111
1.20204e-110
1.20657e-109
1.21107e-108
1.21552e-107
1.21992e-106
1.22429e-105
1.22861e-104
1.2329e-103
1.23714e-102
1.24135e-101
1.24552e-100
1.24965e-99
1.25374e-98
1.2578e-97
1.15842e-96
1.15767e-95
1.16178e-94
1.16535e-93
1.16879e-92
1.17146e-91
1.16833e-90
1.0992e-89
2.66043e-89
2.08873e-188
6.42551e-187
7.30854e-186
7.47339e-185
7.55354e-184
7.62417e-183
7.69377e-182
7.76329e-181
7.83283e-180
7.90239e-179
7.97197e-178
8.04154e-177
8.1111e-176
8.18064e-175
8.25014e-174
8.31958e-173
8.38896e-172
8.45826e-171
8.52747e-170
8.59658e-169
8.66556e-168
8.73441e-167
8.80311e-166
8.87164e-165
8.94e-164
9.00817e-163
9.07613e-162
9.14387e-161
9.21137e-160
9.27863e-159
9.34562e-158
9.41234e-157
9.47877e-156
9.5449e-155
9.61071e-154
9.67619e-153
9.74133e-152
9.80612e-151
9.87053e-150
9.93458e-149
9.99823e-148
1.00615e-146
1.01243e-145
1.01867e-144
1.02487e-143
1.03103e-142
1.03714e-141
1.0432e-140
1.04922e-139
1.05519e-138
1.06112e-137
1.06699e-136
1.07282e-135
1.07859e-134
1.08432e-133
1.09e-132
1.09562e-131
1.1012e-130
1.10672e-129
1.11219e-128
1.11761e-127
1.12298e-126
1.1283e-125
1.13357e-124
1.13878e-123
1.14394e-122
1.14906e-121
1.15412e-120
1.15913e-119
1.16409e-118
1.16901e-117
1.17387e-116
1.17869e-115
1.18345e-114
1.18817e-113
1.19285e-112
1.19747e-111
1.20206e-110
1.20659e-109
1.21109e-108
1.21554e-107
1.21994e-106
1.22431e-105
1.22864e-104
1.23292e-103
1.23717e-102
1.24137e-101
1.24554e-100
1.24967e-99
1.25377e-98
1.25782e-97
1.15845e-96
1.15769e-95
1.1618e-94
1.16537e-93
1.16881e-92
1.17149e-91
1.16835e-90
1.09922e-89
2.66046e-89
2.08874e-188
6.42556e-187
7.3086e-186
7.47345e-185
7.5536e-184
7.62423e-183
7.69383e-182
7.76335e-181
7.83289e-180
7.90246e-179
7.97203e-178
8.0416e-177
8.11116e-176
8.1807e-175
8.2502e-174
8.31964e-173
8.38902e-172
8.45832e-171
8.52753e-170
8.59664e-169
8.66562e-168
8.73447e-167
8.80316e-166
8.8717e-165
8.94006e-164
9.00822e-163
9.07618e-162
9.14392e-161
9.21143e-160
9.27869e-159
9.34568e-158
9.4124e-157
9.47883e-156
9.54496e-155
9.61077e-154
9.67625e-153
9.74139e-152
9.80617e-151
9.87059e-150
9.93463e-149
9.99829e-148
1.00615e-146
1.01244e-145
1.01868e-144
1.02488e-143
1.03104e-142
1.03715e-141
1.04321e-140
1.04923e-139
1.0552e-138
1.06112e-137
1.067e-136
1.07283e-135
1.0786e-134
1.08433e-133
1.09e-132
1.09563e-131
1.10121e-130
1.10673e-129
1.1122e-128
1.11762e-127
1.12299e-126
1.12831e-125
1.13357e-124
1.13879e-123
1.14395e-122
1.14907e-121
1.15413e-120
1.15914e-119
1.1641e-118
1.16902e-117
1.17388e-116
1.1787e-115
1.18346e-114
1.18818e-113
1.19286e-112
1.19748e-111
1.20207e-110
1.2066e-109
1.2111e-108
1.21555e-107
1.21996e-106
1.22432e-105
1.22865e-104
1.23293e-103
1.23718e-102
1.24139e-101
1.24556e-100
1.24969e-99
1.25378e-98
1.25784e-97
1.15846e-96
1.15771e-95
1.16182e-94
1.16538e-93
1.16883e-92
1.1715e-91
1.16836e-90
1.09924e-89
2.66048e-89
2.08875e-188
6.42559e-187
7.30863e-186
7.47348e-185
7.55362e-184
7.62426e-183
7.69386e-182
7.76338e-181
7.83292e-180
7.90249e-179
7.97206e-178
8.04163e-177
8.11119e-176
8.18073e-175
8.25023e-174
8.31967e-173
8.38905e-172
8.45835e-171
8.52756e-170
8.59667e-169
8.66565e-168
8.7345e-167
8.80319e-166
8.87173e-165
8.94009e-164
9.00825e-163
9.07621e-162
9.14395e-161
9.21146e-160
9.27872e-159
9.34571e-158
9.41243e-157
9.47886e-156
9.54498e-155
9.61079e-154
9.67628e-153
9.74142e-152
9.8062e-151
9.87062e-150
9.93466e-149
9.99832e-148
1.00616e-146
1.01244e-145
1.01868e-144
1.02488e-143
1.03104e-142
1.03715e-141
1.04321e-140
1.04923e-139
1.0552e-138
1.06113e-137
1.067e-136
1.07283e-135
1.07861e-134
1.08433e-133
1.09001e-132
1.09563e-131
1.10121e-130
1.10673e-129
1.1122e-128
1.11763e-127
1.12299e-126
1.12831e-125
1.13358e-124
1.13879e-123
1.14396e-122
1.14907e-121
1.15413e-120
1.15915e-119
1.16411e-118
1.16902e-117
1.17389e-116
1.1787e-115
1.18347e-114
1.18819e-113
1.19286e-112
1.19749e-111
1.20207e-110
1.20661e-109
1.21111e-108
1.21556e-107
1.21996e-106
1.22433e-105
1.22866e-104
1.23294e-103
1.23719e-102
1.24139e-101
1.24556e-100
1.2497e-99
1.25379e-98
1.25785e-97
1.15847e-96
1.15772e-95
1.16182e-94
1.16539e-93
1.16883e-92
1.17151e-91
1.16837e-90
1.09924e-89
2.66049e-89
2.08875e-188
6.42559e-187
7.30863e-186
7.47348e-185
7.55362e-184
7.62426e-183
7.69386e-182
7.76338e-181
7.83292e-180
7.90249e-179
7.97206e-178
8.04163e-177
8.11119e-176
8.18073e-175
8.25023e-174
8.31967e-173
8.38905e-172
8.45835e-171
8.52756e-170
8.59667e-169
8.66565e-168
8.7345e-167
8.80319e-166
8.87173e-165
8.94009e-164
9.00825e-163
9.07621e-162
9.14395e-161
9.21146e-160
9.27872e-159
9.34571e-158
9.41243e-157
9.47886e-156
9.54498e-155
9.61079e-154
9.67628e-153
9.74142e-152
9.8062e-151
9.87062e-150
9.93466e-149
9.99832e-148
1.00616e-146
1.01244e-145
1.01868e-144
1.02488e-143
1.03104e-142
1.03715e-141
1.04321e-140
1.04923e-139
1.0552e-138
1.06113e-137
1.067e-136
1.07283e-135
1.07861e-134
1.08433e-133
1.09001e-132
1.09563e-131
1.10121e-130
1.10673e-129
1.1122e-128
1.11763e-127
1.12299e-126
1.12831e-125
1.13358e-124
1.13879e-123
1.14396e-122
1.14907e-121
1.15413e-120
1.15915e-119
1.16411e-118
1.16902e-117
1.17389e-116
1.1787e-115
1.18347e-114
1.18819e-113
1.19286e-112
1.19749e-111
1.20207e-110
1.20661e-109
1.21111e-108
1.21556e-107
1.21996e-106
1.22433e-105
1.22866e-104
1.23294e-103
1.23719e-102
1.24139e-101
1.24556e-100
1.2497e-99
1.25379e-98
1.25785e-97
1.15847e-96
1.15772e-95
1.16182e-94
1.16539e-93
1.16883e-92
1.17151e-91
1.16837e-90
1.09924e-89
2.66049e-89
2.08874e-188
6.42556e-187
7.3086e-186
7.47345e-185
7.5536e-184
7.62423e-183
7.69383e-182
7.76335e-181
7.83289e-180
7.90246e-179
7.97203e-178
8.0416e-177
8.11116e-176
8.1807e-175
8.2502e-174
8.31964e-173
8.38902e-172
8.45832e-171
8.52753e-170
8.59664e-169
8.66562e-168
8.73447e-167
8.80316e-166
8.8717e-165
8.94006e-164
9.00822e-163
9.07618e-162
9.14392e-161
9.21143e-160
9.27869e-159
9.34568e-158
9.4124e-157
9.47883e-156
9.54496e-155
9.61077e-154
9.67625e-153
9.74139e-152
9.80617e-151
9.87059e-150
9.93463e-149
9.99829e-148
1.00615e-146
1.01244e-145
1.01868e-144
1.02488e-143
1.03104e-142
1.03715e-141
1.04321e-140
1.04923e-139
1.0552e-138
1.06112e-137
1.067e-136
1.07283e-135
1.0786e-134
1.08433e-133
1.09e-132
1.09563e-131
1.10121e-130
1.10673e-129
1.1122e-128
1.11762e-127
1.12299e-126
1.12831e-125
1.13357e-124
1.13879e-123
1.14395e-122
1.14907e-121
1.15413e-120
1.15914e-119
1.1641e-118
1.16902e-117
1.17388e-116
1.1787e-115
1.18346e-114
1.18818e-113
1.19286e-112
1.19748e-111
1.20207e-110
1.2066e-109
1.2111e-108
1.21555e-107
1.21996e-106
1.22432e-105
1.22865e-104
1.23293e-103
1.23718e-102
1.24139e-101
1.24556e-100
1.24969e-99
1.25378e-98
1.25784e-97
1.15846e-96
1.15771e-95
1.16182e-94
1.16538e-93
1.16883e-92
1.1715e-91
1.16836e-90
1.09924e-89
2.66048e-89
2.08873e-188
6.42551e-187
7.30854e-186
7.47339e-185
7.55354e-184
7.62417e-183
7.69377e-182
7.76329e-181
7.83283e-180
7.90239e-179
7.97197e-178
8.04154e-177
8.1111e-176
8.18064e-175
8.25014e-174
8.31958e-173
8.38896e-172
8.45826e-171
8.52747e-170
8.59658e-169
8.66556e-168
8.73441e-167
8.80311e-166
8.87164e-165
8.94e-164
9.00817e-163
9.07613e-162
9.14387e-161
9.21137e-160
9.27863e-159
9.34562e-158
9.41234e-157
9.47877e-156
9.5449e-155
9.61071e-154
9.67619e-153
9.74133e-152
9.80612e-151
9.87053e-150
9.93458e-149
9.99823e-148
1.00615e-146
1.01243e-145
1.01867e-144
1.02487e-143
1.03103e-142
1.03714e-141
1.0432e-140
1.04922e-139
1.05519e-138
1.06112e-137
1.06699e-136
1.07282e-135
1.07859e-134
1.08432e-133
1.09e-132
1.09562e-131
1.1012e-130
1.10672e-129
1.11219e-128
1.11761e-127
1.12298e-126
1.1283e-125
1.13357e-124
1.13878e-123
1.14394e-122
1.14906e-121
1.15412e-120
1.15913e-119
1.16409e-118
1.16901e-117
1.17387e-116
1.17869e-115
1.18345e-114
1.18817e-113
1.19285e-112
1.19747e-111
1.20206e-110
1.20659e-109