/*--------------------------------*- C++ -*----------------------------------*\
| =========                 |                                                 |
| \\      /  F ield         | OpenFOAM: The Open Source CFD Toolbox           |
|  \\    /   O peration     | Version:  2406                                  |
|   \\  /    A nd           | Website:  www.openfoam.com                      |
|    \\/     M anipulation  |                                                 |
\*---------------------------------------------------------------------------*/
FoamFile
{
    version     2.0;
    format      ascii;
    arch        "LSB;label=32;scalar=64";
    class       volVectorField;
    location    "2.64e-05";
    object      U;
}
// * * * * * * * * * * * * * * * * * * * * * * * * * * * * * * * * * * * * * //

dimensions      [0 1 -1 0 0 0 0];

internalField   nonuniform List<vector> 
4000
(
(-0.131106 2.53196 0)
(-0.281089 2.4199 0)
(-0.195265 2.15971 0)
(-0.115635 1.93622 0)
(-0.0784151 1.75694 0)
(-0.0610211 1.60987 0)
(-0.0509278 1.48609 0)
(-0.0438753 1.37978 0)
(-0.0384634 1.28701 0)
(-0.0341275 1.20504 0)
(-0.0305678 1.13185 0)
(-0.0275922 1.06596 0)
(-0.025067 1.0062 0)
(-0.0228968 0.9517 0)
(-0.0210029 0.901739 0)
(-0.0193394 0.855741 0)
(-0.0178723 0.813238 0)
(-0.016561 0.773841 0)
(-0.0153813 0.737221 0)
(-0.0143143 0.703102 0)
(-0.0133441 0.671245 0)
(-0.0124577 0.641446 0)
(-0.0116439 0.613527 0)
(-0.0108934 0.587332 0)
(-0.0101987 0.562725 0)
(-0.00955334 0.539587 0)
(-0.0089519 0.51781 0)
(-0.00838958 0.497298 0)
(-0.00786212 0.477966 0)
(-0.00736581 0.459737 0)
(-0.00689745 0.442544 0)
(-0.00645429 0.426322 0)
(-0.00603394 0.411017 0)
(-0.00563423 0.396577 0)
(-0.00525315 0.382954 0)
(-0.00488888 0.370107 0)
(-0.00453978 0.357997 0)
(-0.00420438 0.346589 0)
(-0.00388138 0.33585 0)
(-0.00356962 0.325751 0)
(-0.00326802 0.316264 0)
(-0.00297564 0.307365 0)
(-0.00269175 0.29903 0)
(-0.00241538 0.291237 0)
(-0.00214481 0.283968 0)
(-0.00187847 0.277206 0)
(-0.0016157 0.270942 0)
(-0.00135602 0.265162 0)
(-0.0010988 0.259856 0)
(-0.000843357 0.255015 0)
(-0.000588986 0.250632 0)
(-0.00033496 0.2467 0)
(-8.0551e-05 0.243213 0)
(0.000174969 0.240168 0)
(0.000432326 0.237563 0)
(0.000692257 0.235396 0)
(0.000955523 0.233668 0)
(0.00122292 0.232379 0)
(0.00149527 0.231532 0)
(0.00177348 0.231132 0)
(0.00205848 0.231185 0)
(0.00235127 0.231697 0)
(0.0026529 0.232678 0)
(0.00296449 0.234138 0)
(0.00328726 0.23609 0)
(0.00362251 0.238549 0)
(0.00397168 0.24153 0)
(0.00433633 0.245054 0)
(0.00471822 0.249142 0)
(0.00511927 0.253817 0)
(0.00554167 0.259107 0)
(0.00598785 0.265043 0)
(0.00646054 0.27166 0)
(0.00696283 0.278997 0)
(0.00749826 0.287097 0)
(0.00807087 0.296009 0)
(0.00868534 0.305791 0)
(0.0093471 0.316505 0)
(0.0100625 0.328221 0)
(0.0108391 0.341023 0)
(0.0116859 0.355004 0)
(0.0126136 0.370271 0)
(0.0136353 0.38695 0)
(0.014767 0.405185 0)
(0.0160286 0.425147 0)
(0.0174448 0.447041 0)
(0.0190475 0.471107 0)
(0.0208774 0.497641 0)
(0.0229875 0.527005 0)
(0.0254472 0.55965 0)
(0.0283472 0.596152 0)
(0.0318125 0.637254 0)
(0.0359656 0.683947 0)
(0.0409077 0.737581 0)
(0.0466745 0.800033 0)
(0.0531969 0.873932 0)
(0.0597512 0.96277 0)
(0.0557754 1.06928 0)
(-0.00866617 1.18417 0)
(-0.047835 1.38301 0)
(-0.348812 3.30957 0)
(-0.967137 3.28509 0)
(-1.03013 3.06803 0)
(-0.88317 2.83687 0)
(-0.729638 2.62371 0)
(-0.609346 2.43297 0)
(-0.518401 2.26312 0)
(-0.448586 2.11146 0)
(-0.393686 1.97537 0)
(-0.34951 1.85257 0)
(-0.313237 1.74121 0)
(-0.28293 1.6397 0)
(-0.257226 1.54678 0)
(-0.235146 1.46138 0)
(-0.215985 1.3826 0)
(-0.199188 1.30969 0)
(-0.184322 1.24203 0)
(-0.171079 1.17908 0)
(-0.159204 1.12037 0)
(-0.148496 1.06552 0)
(-0.138788 1.01416 0)
(-0.129946 0.966007 0)
(-0.121855 0.920791 0)
(-0.114423 0.87828 0)
(-0.107571 0.838267 0)
(-0.101234 0.800567 0)
(-0.0953558 0.765017 0)
(-0.0898862 0.731468 0)
(-0.0847825 0.699789 0)
(-0.0800074 0.66986 0)
(-0.075529 0.641572 0)
(-0.0713193 0.614828 0)
(-0.0673538 0.589539 0)
(-0.0636105 0.565622 0)
(-0.0600691 0.543003 0)
(-0.0567116 0.521615 0)
(-0.0535219 0.501396 0)
(-0.0504857 0.482289 0)
(-0.0475904 0.464241 0)
(-0.0448248 0.447204 0)
(-0.0421785 0.431135 0)
(-0.0396421 0.415992 0)
(-0.0372073 0.401738 0)
(-0.034864 0.388324 0)
(-0.0325977 0.375707 0)
(-0.0303963 0.363875 0)
(-0.0282524 0.35282 0)
(-0.0261606 0.342519 0)
(-0.0241154 0.332954 0)
(-0.0221108 0.324108 0)
(-0.0201411 0.315967 0)
(-0.0182003 0.308519 0)
(-0.0162826 0.301753 0)
(-0.0143823 0.295661 0)
(-0.0124937 0.290237 0)
(-0.0106114 0.285476 0)
(-0.00872966 0.281375 0)
(-0.00684253 0.277935 0)
(-0.0049439 0.275156 0)
(-0.00302731 0.273042 0)
(-0.00108605 0.2716 0)
(0.000886905 0.270836 0)
(0.00289885 0.270763 0)
(0.00495745 0.271393 0)
(0.00707082 0.272741 0)
(0.00924766 0.274825 0)
(0.0114974 0.277668 0)
(0.0138304 0.281294 0)
(0.0162579 0.28573 0)
(0.0187927 0.291009 0)
(0.0214486 0.297165 0)
(0.0242411 0.304241 0)
(0.0271878 0.312281 0)
(0.0303081 0.321336 0)
(0.0336242 0.331465 0)
(0.0371612 0.342732 0)
(0.0409483 0.35521 0)
(0.0450191 0.368981 0)
(0.0494129 0.384136 0)
(0.0541762 0.400781 0)
(0.0593638 0.419034 0)
(0.0650418 0.43903 0)
(0.0712897 0.460924 0)
(0.0782052 0.484893 0)
(0.0859095 0.51114 0)
(0.0945535 0.539904 0)
(0.10433 0.571459 0)
(0.115491 0.60613 0)
(0.128366 0.644297 0)
(0.143405 0.686412 0)
(0.161229 0.733007 0)
(0.182714 0.784719 0)
(0.209201 0.842291 0)
(0.242704 0.906598 0)
(0.286195 0.978626 0)
(0.343367 1.05942 0)
(0.413649 1.14998 0)
(0.467096 1.25203 0)
(0.406683 1.37878 0)
(0.0844057 1.72358 0)
(-0.414332 2.61622 0)
(-1.1955 2.64663 0)
(-1.37093 2.56122 0)
(-1.27358 2.45187 0)
(-1.12653 2.3328 0)
(-0.991207 2.21141 0)
(-0.876284 2.09237 0)
(-0.779887 1.97821 0)
(-0.698794 1.87011 0)
(-0.630094 1.76848 0)
(-0.571417 1.67331 0)
(-0.520875 1.58434 0)
(-0.476983 1.50122 0)
(-0.43857 1.42355 0)
(-0.404706 1.35093 0)
(-0.37465 1.28296 0)
(-0.347807 1.2193 0)
(-0.323696 1.15959 0)
(-0.301929 1.10353 0)
(-0.282184 1.05085 0)
(-0.264194 1.00129 0)
(-0.247736 0.954612 0)
(-0.232622 0.910624 0)
(-0.218695 0.869133 0)
(-0.205821 0.829969 0)
(-0.193886 0.792979 0)
(-0.182788 0.758023 0)
(-0.172442 0.724973 0)
(-0.162772 0.693715 0)
(-0.15371 0.664142 0)
(-0.1452 0.636157 0)
(-0.137192 0.609672 0)
(-0.12964 0.584606 0)
(-0.122504 0.560884 0)
(-0.115746 0.538439 0)
(-0.109333 0.517206 0)
(-0.103237 0.49713 0)
(-0.0974303 0.478156 0)
(-0.0918897 0.460236 0)
(-0.0865935 0.443324 0)
(-0.0815216 0.427379 0)
(-0.0766553 0.412365 0)
(-0.0719782 0.398245 0)
(-0.0674707 0.384958 0)
(-0.06311 0.372453 0)
(-0.0588778 0.360733 0)
(-0.0547604 0.349801 0)
(-0.0507455 0.339634 0)
(-0.0468213 0.330214 0)
(-0.0429763 0.321526 0)
(-0.0391989 0.313554 0)
(-0.0354777 0.306288 0)
(-0.0318018 0.299717 0)
(-0.0281605 0.293834 0)
(-0.0245432 0.288631 0)
(-0.0209393 0.284106 0)
(-0.0173379 0.280256 0)
(-0.0137279 0.27708 0)
(-0.0100976 0.27458 0)
(-0.00643469 0.27276 0)
(-0.00272665 0.271627 0)
(0.0010396 0.271188 0)
(0.00487767 0.271454 0)
(0.00880178 0.272437 0)
(0.012827 0.274154 0)
(0.0169696 0.276621 0)
(0.0212471 0.279859 0)
(0.0256785 0.283893 0)
(0.0302848 0.288747 0)
(0.0350892 0.294454 0)
(0.0401172 0.301047 0)
(0.045397 0.308563 0)
(0.0509601 0.317046 0)
(0.0568417 0.326543 0)
(0.0630814 0.337105 0)
(0.0697242 0.348792 0)
(0.0768216 0.361668 0)
(0.0844328 0.375805 0)
(0.0926264 0.391283 0)
(0.101483 0.408189 0)
(0.111095 0.426623 0)
(0.121576 0.446692 0)
(0.133058 0.468517 0)
(0.145701 0.49223 0)
(0.159697 0.517979 0)
(0.175286 0.545922 0)
(0.19276 0.576234 0)
(0.212486 0.609098 0)
(0.234926 0.644705 0)
(0.260669 0.683242 0)
(0.290469 0.724875 0)
(0.32529 0.769713 0)
(0.366359 0.817755 0)
(0.41518 0.86876 0)
(0.473308 0.922088 0)
(0.540975 0.976417 0)
(0.610229 1.02961 0)
(0.638928 1.08057 0)
(0.52224 1.14262 0)
(0.108534 1.37979 0)
(-0.447207 2.14273 0)
(-1.30277 2.17866 0)
(-1.5388 2.13514 0)
(-1.4824 2.07736 0)
(-1.35879 2.00977 0)
(-1.23396 1.93533 0)
(-1.12056 1.85713 0)
(-1.0198 1.77763 0)
(-0.930733 1.69859 0)
(-0.852021 1.62118 0)
(-0.782351 1.54617 0)
(-0.720516 1.47403 0)
(-0.665449 1.40499 0)
(-0.616222 1.33916 0)
(-0.572044 1.27654 0)
(-0.532239 1.21707 0)
(-0.496234 1.16065 0)
(-0.463541 1.10716 0)
(-0.433748 1.05647 0)
(-0.406503 1.00844 0)
(-0.381506 0.96293 0)
(-0.358497 0.919803 0)
(-0.337255 0.878929 0)
(-0.317591 0.840185 0)
(-0.299338 0.803455 0)
(-0.282353 0.768627 0)
(-0.266509 0.7356 0)
(-0.251693 0.704276 0)
(-0.237808 0.674566 0)
(-0.224768 0.646387 0)
(-0.212497 0.619659 0)
(-0.200926 0.594312 0)
(-0.189995 0.570278 0)
(-0.179648 0.547494 0)
(-0.169835 0.525903 0)
(-0.160511 0.50545 0)
(-0.151636 0.486087 0)
(-0.143173 0.467767 0)
(-0.135089 0.450446 0)
(-0.127352 0.434086 0)
(-0.119934 0.418649 0)
(-0.112809 0.404104 0)
(-0.105953 0.390418 0)
(-0.0993379 0.377518 0)
(-0.0929339 0.365345 0)
(-0.0867191 0.353922 0)
(-0.080674 0.343261 0)
(-0.0747796 0.333341 0)
(-0.0690183 0.324146 0)
(-0.063373 0.315659 0)
(-0.0578268 0.307868 0)
(-0.0523634 0.300761 0)
(-0.046967 0.294329 0)
(-0.0416222 0.288564 0)
(-0.0363138 0.283459 0)
(-0.0310263 0.279011 0)
(-0.0257441 0.275216 0)
(-0.0204508 0.272075 0)
(-0.0151297 0.269588 0)
(-0.00976323 0.267758 0)
(-0.00433359 0.266591 0)
(0.00117776 0.266093 0)
(0.00679004 0.266273 0)
(0.0125233 0.267142 0)
(0.018399 0.268712 0)
(0.0244396 0.270999 0)
(0.0306698 0.27402 0)
(0.0371163 0.277795 0)
(0.0438081 0.282347 0)
(0.050777 0.287699 0)
(0.058058 0.293881 0)
(0.0656895 0.300923 0)
(0.0737137 0.308859 0)
(0.0821777 0.317726 0)
(0.0911341 0.327566 0)
(0.100642 0.338422 0)
(0.110767 0.350342 0)
(0.121587 0.363379 0)
(0.133188 0.377588 0)
(0.14567 0.393029 0)
(0.159147 0.409763 0)
(0.173753 0.427858 0)
(0.189642 0.44738 0)
(0.206997 0.468397 0)
(0.226031 0.490974 0)
(0.246994 0.515171 0)
(0.270182 0.541036 0)
(0.295945 0.568595 0)
(0.324695 0.597843 0)
(0.356915 0.628723 0)
(0.393165 0.661099 0)
(0.434074 0.694722 0)
(0.480326 0.729172 0)
(0.532567 0.763799 0)
(0.59109 0.797641 0)
(0.654381 0.829404 0)
(0.712382 0.857812 0)
(0.721255 0.883995 0)
(0.57709 0.923321 0)
(0.125633 1.11456 0)
(-0.465481 1.79824 0)
(-1.3624 1.83227 0)
(-1.63418 1.80621 0)
(-1.60562 1.77191 0)
(-1.50229 1.73066 0)
(-1.39133 1.68322 0)
(-1.2864 1.63116 0)
(-1.18974 1.57605 0)
(-1.10139 1.51918 0)
(-1.02088 1.46163 0)
(-0.947634 1.40421 0)
(-0.880998 1.34753 0)
(-0.82034 1.29206 0)
(-0.765061 1.23809 0)
(-0.714603 1.18585 0)
(-0.668458 1.13547 0)
(-0.626169 1.08702 0)
(-0.587326 1.04054 0)
(-0.551567 0.996015 0)
(-0.518572 0.953427 0)
(-0.488059 0.912735 0)
(-0.459777 0.873886 0)
(-0.433506 0.83682 0)
(-0.409049 0.801476 0)
(-0.386234 0.767788 0)
(-0.364909 0.735691 0)
(-0.344935 0.705119 0)
(-0.326191 0.67601 0)
(-0.308567 0.648301 0)
(-0.291968 0.621934 0)
(-0.276305 0.596852 0)
(-0.261499 0.573001 0)
(-0.24748 0.55033 0)
(-0.234182 0.52879 0)
(-0.221547 0.508336 0)
(-0.209521 0.488925 0)
(-0.198055 0.470515 0)
(-0.187106 0.45307 0)
(-0.176631 0.436553 0)
(-0.166593 0.420932 0)
(-0.156956 0.406176 0)
(-0.147686 0.392257 0)
(-0.138757 0.379147 0)
(-0.130132 0.366762 0)
(-0.121775 0.35504 0)
(-0.113662 0.344023 0)
(-0.105769 0.33373 0)
(-0.0980711 0.324143 0)
(-0.0905452 0.315247 0)
(-0.0831694 0.307027 0)
(-0.0759225 0.299472 0)
(-0.0687838 0.292569 0)
(-0.0617331 0.286312 0)
(-0.0547508 0.280691 0)
(-0.0478172 0.275701 0)
(-0.0409127 0.271337 0)
(-0.034017 0.267597 0)
(-0.0271093 0.264479 0)
(-0.0201684 0.261985 0)
(-0.0131724 0.260115 0)
(-0.00609887 0.258873 0)
(0.0010753 0.258265 0)
(0.00837402 0.258297 0)
(0.0158223 0.258977 0)
(0.0234466 0.260316 0)
(0.0312749 0.262324 0)
(0.0393375 0.265016 0)
(0.0476667 0.268406 0)
(0.0562979 0.272511 0)
(0.0652691 0.277351 0)
(0.0746219 0.282947 0)
(0.0844015 0.289319 0)
(0.0946573 0.296494 0)
(0.105444 0.304497 0)
(0.11682 0.313354 0)
(0.128854 0.323096 0)
(0.141619 0.333752 0)
(0.155199 0.345353 0)
(0.169685 0.35793 0)
(0.185184 0.371513 0)
(0.201814 0.38613 0)
(0.219707 0.401808 0)
(0.239016 0.418565 0)
(0.259909 0.436415 0)
(0.282581 0.455357 0)
(0.307248 0.475374 0)
(0.334152 0.496428 0)
(0.363565 0.518447 0)
(0.395782 0.541318 0)
(0.431124 0.564872 0)
(0.469923 0.588868 0)
(0.512511 0.612974 0)
(0.559186 0.636745 0)
(0.61013 0.659611 0)
(0.665117 0.680874 0)
(0.722131 0.699772 0)
(0.770716 0.715884 0)
(0.766922 0.73121 0)
(0.607465 0.759991 0)
(0.135461 0.91986 0)
(-0.476775 1.53197 0)
(-1.39932 1.56241 0)
(-1.69398 1.54508 0)
(-1.68441 1.52292 0)
(-1.59641 1.49604 0)
(-1.49749 1.46435 0)
(-1.40159 1.42861 0)
(-1.31123 1.3897 0)
(-1.22679 1.3485 0)
(-1.1482 1.30574 0)
(-1.07524 1.26209 0)
(-1.0076 1.21809 0)
(-0.94494 1.17417 0)
(-0.886918 1.13069 0)
(-0.833179 1.08793 0)
(-0.783379 1.04609 0)
(-0.737188 1.00532 0)
(-0.6943 0.965743 0)
(-0.654429 0.927429 0)
(-0.617316 0.890428 0)
(-0.582721 0.854764 0)
(-0.550425 0.820446 0)
(-0.520228 0.78747 0)
(-0.491952 0.75582 0)
(-0.465434 0.725477 0)
(-0.440526 0.69641 0)
(-0.417094 0.668591 0)
(-0.395018 0.641984 0)
(-0.374186 0.616553 0)
(-0.354498 0.592265 0)
(-0.335864 0.569081 0)
(-0.3182 0.546966 0)
(-0.301431 0.525886 0)
(-0.285488 0.505804 0)
(-0.270306 0.486689 0)
(-0.255827 0.468508 0)
(-0.241997 0.45123 0)
(-0.228765 0.434826 0)
(-0.216087 0.419268 0)
(-0.203917 0.404531 0)
(-0.192217 0.39059 0)
(-0.180948 0.377421 0)
(-0.170079 0.365004 0)
(-0.159568 0.353239 0)
(-0.149373 0.342069 0)
(-0.139471 0.331553 0)
(-0.129832 0.321716 0)
(-0.120428 0.312542 0)
(-0.11123 0.304017 0)
(-0.102214 0.296129 0)
(-0.0933543 0.288866 0)
(-0.0846259 0.28222 0)
(-0.0760055 0.276181 0)
(-0.0674695 0.270743 0)
(-0.0589945 0.265899 0)
(-0.050557 0.261646 0)
(-0.0421329 0.25798 0)
(-0.0336977 0.254899 0)
(-0.0252266 0.252404 0)
(-0.0166939 0.250494 0)
(-0.00807371 0.249172 0)
(0.000660904 0.248441 0)
(0.00953757 0.248305 0)
(0.0185851 0.24877 0)
(0.0278339 0.249843 0)
(0.037316 0.251532 0)
(0.0470656 0.253846 0)
(0.0571193 0.256795 0)
(0.0675163 0.260392 0)
(0.0782989 0.264648 0)
(0.0895123 0.269578 0)
(0.101205 0.275194 0)
(0.113431 0.281513 0)
(0.126246 0.288549 0)
(0.139714 0.296317 0)
(0.153902 0.304832 0)
(0.168886 0.314107 0)
(0.184748 0.324155 0)
(0.201578 0.334986 0)
(0.219477 0.346607 0)
(0.238554 0.359019 0)
(0.258928 0.372217 0)
(0.280732 0.386188 0)
(0.304111 0.400908 0)
(0.329219 0.416337 0)
(0.356225 0.432417 0)
(0.385308 0.449068 0)
(0.416656 0.466181 0)
(0.450461 0.48361 0)
(0.486914 0.501171 0)
(0.526194 0.518631 0)
(0.568458 0.535702 0)
(0.613815 0.552042 0)
(0.662263 0.567256 0)
(0.713418 0.580913 0)
(0.765156 0.592618 0)
(0.806979 0.602354 0)
(0.794951 0.612242 0)
(0.62607 0.634906 0)
(0.14156 0.771289 0)
(-0.484299 1.31706 0)
(-1.42392 1.34374 0)
(-1.73413 1.33138 0)
(-1.73793 1.31617 0)
(-1.66129 1.29776 0)
(-1.57196 1.27571 0)
(-1.48393 1.25037 0)
(-1.39977 1.22227 0)
(-1.31999 1.19194 0)
(-1.24463 1.1599 0)
(-1.17366 1.1266 0)
(-1.10694 1.09246 0)
(-1.0443 1.05785 0)
(-0.985564 1.02308 0)
(-0.930509 0.988409 0)
(-0.878919 0.954049 0)
(-0.830572 0.920177 0)
(-0.785253 0.886934 0)
(-0.742751 0.854431 0)
(-0.702868 0.822751 0)
(-0.665412 0.791958 0)
(-0.630205 0.762097 0)
(-0.59708 0.733198 0)
(-0.565882 0.705282 0)
(-0.536467 0.678355 0)
(-0.508705 0.652419 0)
(-0.482471 0.627469 0)
(-0.457653 0.603496 0)
(-0.434144 0.580484 0)
(-0.411849 0.558418 0)
(-0.390678 0.537279 0)
(-0.37055 0.517047 0)
(-0.35139 0.4977 0)
(-0.333126 0.479218 0)
(-0.315693 0.461578 0)
(-0.299031 0.444758 0)
(-0.283082 0.428738 0)
(-0.267794 0.413497 0)
(-0.253119 0.399015 0)
(-0.239009 0.385271 0)
(-0.225423 0.372248 0)
(-0.212318 0.359927 0)
(-0.199663 0.348292 0)
(-0.187408 0.337233 0)
(-0.175508 0.326698 0)
(-0.163942 0.316764 0)
(-0.152678 0.307457 0)
(-0.14168 0.298764 0)
(-0.130921 0.290674 0)
(-0.12037 0.283176 0)
(-0.11 0.276259 0)
(-0.0997828 0.269916 0)
(-0.0896916 0.264139 0)
(-0.0796998 0.25892 0)
(-0.0697807 0.254256 0)
(-0.0599078 0.250141 0)
(-0.0500541 0.246572 0)
(-0.0401921 0.243547 0)
(-0.030294 0.241065 0)
(-0.0203317 0.239125 0)
(-0.010276 0.237727 0)
(-9.75035e-05 0.236873 0)
(0.0102344 0.236566 0)
(0.0207514 0.236808 0)
(0.0314866 0.237603 0)
(0.0424747 0.238956 0)
(0.0537525 0.240872 0)
(0.065359 0.243358 0)
(0.0773355 0.246419 0)
(0.0897261 0.250064 0)
(0.102578 0.254297 0)
(0.11594 0.259127 0)
(0.129866 0.264559 0)
(0.144414 0.2706 0)
(0.159643 0.277254 0)
(0.175622 0.284524 0)
(0.19242 0.292412 0)
(0.210115 0.300915 0)
(0.22879 0.31003 0)
(0.248534 0.319745 0)
(0.269442 0.330045 0)
(0.291616 0.340907 0)
(0.315165 0.352299 0)
(0.340202 0.364177 0)
(0.366849 0.376485 0)
(0.395228 0.389151 0)
(0.425466 0.402084 0)
(0.457687 0.415173 0)
(0.492011 0.428282 0)
(0.52855 0.441252 0)
(0.567398 0.453893 0)
(0.608627 0.465992 0)
(0.652267 0.47731 0)
(0.698255 0.487591 0)
(0.746175 0.496578 0)
(0.793896 0.504071 0)
(0.830928 0.510215 0)
(0.81334 0.517017 0)
(0.638273 0.535576 0)
(0.145607 0.653264 0)
(-0.489582 1.13817 0)
(-1.44117 1.16135 0)
(-1.76242 1.15211 0)
(-1.77593 1.14121 0)
(-1.7078 1.12811 0)
(-1.62595 1.11226 0)
(-1.54438 1.09381 0)
(-1.46566 1.07306 0)
(-1.3903 1.05036 0)
(-1.31841 1.02605 0)
(-1.25 1.00044 0)
(-1.18503 0.973849 0)
(-1.12343 0.946546 0)
(-1.06509 0.918783 0)
(-1.00989 0.890779 0)
(-0.957707 0.862726 0)
(-0.908382 0.834788 0)
(-0.861771 0.807105 0)
(-0.817726 0.779794 0)
(-0.776098 0.752951 0)
(-0.736744 0.726655 0)
(-0.699522 0.70097 0)
(-0.664297 0.675944 0)
(-0.630943 0.651616 0)
(-0.599338 0.628013 0)
(-0.569369 0.605156 0)
(-0.540927 0.583057 0)
(-0.51391 0.561723 0)
(-0.488223 0.541156 0)
(-0.463777 0.521356 0)
(-0.440489 0.502316 0)
(-0.418281 0.48403 0)
(-0.397081 0.466488 0)
(-0.376821 0.449679 0)
(-0.357435 0.433592 0)
(-0.338863 0.418214 0)
(-0.321049 0.403532 0)
(-0.303938 0.389532 0)
(-0.287483 0.376201 0)
(-0.271635 0.363526 0)
(-0.25635 0.351493 0)
(-0.241585 0.34009 0)
(-0.227308 0.329304 0)
(-0.213463 0.319016 0)
(-0.200003 0.309181 0)
(-0.186912 0.299893 0)
(-0.174153 0.291178 0)
(-0.161689 0.283023 0)
(-0.149488 0.275421 0)
(-0.13752 0.268362 0)
(-0.125753 0.261837 0)
(-0.114158 0.25584 0)
(-0.102705 0.250362 0)
(-0.0913655 0.2454 0)
(-0.08011 0.240947 0)
(-0.0689096 0.236999 0)
(-0.057735 0.233553 0)
(-0.0465566 0.230606 0)
(-0.0353446 0.228156 0)
(-0.0240685 0.226202 0)
(-0.0126974 0.224742 0)
(-0.00119967 0.223777 0)
(0.0104571 0.223307 0)
(0.0223064 0.223333 0)
(0.0343832 0.223856 0)
(0.0467237 0.224878 0)
(0.0593661 0.226401 0)
(0.0723503 0.228427 0)
(0.0857183 0.230958 0)
(0.0995144 0.233996 0)
(0.113785 0.237543 0)
(0.128579 0.241599 0)
(0.143949 0.246164 0)
(0.159948 0.251238 0)
(0.176636 0.256816 0)
(0.194073 0.262895 0)
(0.212327 0.269466 0)
(0.231464 0.276519 0)
(0.25156 0.284038 0)
(0.27269 0.292006 0)
(0.294934 0.300395 0)
(0.318379 0.309175 0)
(0.34311 0.318305 0)
(0.369216 0.327737 0)
(0.396788 0.33741 0)
(0.425915 0.347255 0)
(0.456685 0.357186 0)
(0.489184 0.367106 0)
(0.523488 0.376904 0)
(0.559662 0.386452 0)
(0.59776 0.39561 0)
(0.637816 0.404225 0)
(0.679833 0.412137 0)
(0.723735 0.419181 0)
(0.769106 0.4252 0)
(0.813831 0.430096 0)
(0.847429 0.434073 0)
(0.825961 0.438956 0)
(0.646664 0.454491 0)
(0.148427 0.556681 0)
(-0.493437 0.985806 0)
(-1.45373 1.00584 0)
(-1.78309 0.998678 0)
(-1.80382 0.990623 0)
(-1.74217 0.981044 0)
(-1.66615 0.969365 0)
(-1.58978 0.95563 0)
(-1.51561 0.940026 0)
(-1.44414 0.922775 0)
(-1.37549 0.904102 0)
(-1.30968 0.884235 0)
(-1.24672 0.86339 0)
(-1.18658 0.841774 0)
(-1.12919 0.819579 0)
(-1.0745 0.796979 0)
(-1.02243 0.774133 0)
(-0.972863 0.751183 0)
(-0.925715 0.728254 0)
(-0.880878 0.705455 0)
(-0.838244 0.68288 0)
(-0.797705 0.660609 0)
(-0.759153 0.638711 0)
(-0.722482 0.617243 0)
(-0.68759 0.596251 0)
(-0.654376 0.575773 0)
(-0.622745 0.555841 0)
(-0.592603 0.536476 0)
(-0.563864 0.517698 0)
(-0.536441 0.49952 0)
(-0.510256 0.481949 0)
(-0.485234 0.464991 0)
(-0.461302 0.448649 0)
(-0.438394 0.432921 0)
(-0.416444 0.417805 0)
(-0.39539 0.403298 0)
(-0.375175 0.389394 0)
(-0.355743 0.376087 0)
(-0.337042 0.363369 0)
(-0.319023 0.351233 0)
(-0.30164 0.33967 0)
(-0.284846 0.328673 0)
(-0.268599 0.318231 0)
(-0.25287 0.308339 0)
(-0.237593 0.298868 0)
(-0.222724 0.289781 0)
(-0.208253 0.281189 0)
(-0.194136 0.273111 0)
(-0.180339 0.265541 0)
(-0.166825 0.25847 0)
(-0.153563 0.251891 0)
(-0.140521 0.245797 0)
(-0.127666 0.240182 0)
(-0.114968 0.23504 0)
(-0.102395 0.230365 0)
(-0.0899175 0.226154 0)
(-0.0775037 0.222403 0)
(-0.0651231 0.219106 0)
(-0.0527446 0.216263 0)
(-0.040337 0.213869 0)
(-0.0278683 0.211923 0)
(-0.0153062 0.210423 0)
(-0.00261773 0.209368 0)
(0.0102307 0.208755 0)
(0.0232737 0.208585 0)
(0.036547 0.208857 0)
(0.0500872 0.209569 0)
(0.0639329 0.210721 0)
(0.078124 0.212313 0)
(0.0927021 0.214343 0)
(0.107711 0.216808 0)
(0.123195 0.219708 0)
(0.139202 0.223037 0)
(0.15578 0.226792 0)
(0.172982 0.230966 0)
(0.190861 0.235551 0)
(0.209472 0.240538 0)
(0.228877 0.245912 0)
(0.249135 0.251659 0)
(0.27031 0.257759 0)
(0.292468 0.264188 0)
(0.315675 0.270916 0)
(0.340002 0.27791 0)
(0.365518 0.285129 0)
(0.392293 0.292526 0)
(0.420395 0.300046 0)
(0.449892 0.307625 0)
(0.480846 0.315193 0)
(0.513319 0.32267 0)
(0.547361 0.329967 0)
(0.583017 0.336989 0)
(0.62032 0.343634 0)
(0.659292 0.349795 0)
(0.699927 0.355362 0)
(0.742151 0.360229 0)
(0.785561 0.364298 0)
(0.828055 0.367523 0)
(0.859155 0.370123 0)
(0.834911 0.373731 0)
(0.652639 0.386896 0)
(0.150466 0.475864 0)
(-0.496332 0.853617 0)
(-1.46313 0.870849 0)
(-1.7986 0.865178 0)
(-1.82482 0.859094 0)
(-1.76815 0.851946 0)
(-1.69671 0.843177 0)
(-1.62451 0.832779 0)
(-1.55409 0.820868 0)
(-1.48592 0.807592 0)
(-1.42012 0.793105 0)
(-1.35673 0.777564 0)
(-1.29574 0.761127 0)
(-1.23716 0.743944 0)
(-1.18096 0.726161 0)
(-1.12708 0.707912 0)
(-1.0755 0.689327 0)
(-1.02613 0.67052 0)
(-0.978917 0.651598 0)
(-0.933781 0.632657 0)
(-0.890646 0.613779 0)
(-0.84943 0.595042 0)
(-0.810051 0.576509 0)
(-0.772425 0.558237 0)
(-0.736471 0.540277 0)
(-0.702106 0.522669 0)
(-0.669253 0.505448 0)
(-0.637832 0.488643 0)
(-0.607768 0.472279 0)
(-0.578988 0.456374 0)
(-0.551422 0.440943 0)
(-0.525001 0.425998 0)
(-0.499663 0.411548 0)
(-0.475345 0.397598 0)
(-0.451986 0.384152 0)
(-0.429528 0.371212 0)
(-0.407918 0.358778 0)
(-0.387103 0.346849 0)
(-0.367032 0.335422 0)
(-0.347659 0.324494 0)
(-0.328936 0.314062 0)
(-0.31082 0.30412 0)
(-0.293268 0.294665 0)
(-0.276252 0.28569 0)
(-0.259703 0.277064 0)
(-0.243578 0.268759 0)
(-0.227872 0.260896 0)
(-0.21254 0.253492 0)
(-0.197544 0.24654 0)
(-0.182849 0.240034 0)
(-0.168421 0.233968 0)
(-0.154227 0.228337 0)
(-0.140235 0.223135 0)
(-0.126411 0.218358 0)
(-0.112723 0.214002 0)
(-0.0991406 0.210062 0)
(-0.0856307 0.206534 0)
(-0.0721618 0.203416 0)
(-0.0587019 0.200702 0)
(-0.0452187 0.198392 0)
(-0.0316794 0.196481 0)
(-0.018051 0.194968 0)
(-0.00429981 0.193849 0)
(0.00960846 0.193123 0)
(0.0237088 0.192787 0)
(0.0380369 0.192839 0)
(0.0526298 0.193277 0)
(0.0675254 0.194096 0)
(0.0827628 0.195296 0)
(0.0983828 0.196871 0)
(0.114427 0.198817 0)
(0.130939 0.20113 0)
(0.147963 0.203803 0)
(0.165545 0.206828 0)
(0.183733 0.210195 0)
(0.202577 0.213896 0)
(0.222127 0.217915 0)
(0.242436 0.222238 0)
(0.263559 0.226848 0)
(0.28555 0.231722 0)
(0.308466 0.236836 0)
(0.332363 0.242161 0)
(0.357299 0.247664 0)
(0.383332 0.253308 0)
(0.410516 0.259051 0)
(0.438906 0.264844 0)
(0.468555 0.270636 0)
(0.499511 0.276367 0)
(0.531819 0.281977 0)
(0.56552 0.287396 0)
(0.600645 0.292555 0)
(0.637222 0.297378 0)
(0.675266 0.301791 0)
(0.714775 0.305719 0)
(0.755681 0.30909 0)
(0.797591 0.311842 0)
(0.838414 0.313957 0)
(0.867677 0.315647 0)
(0.841414 0.31836 0)
(0.657003 0.329582 0)
(0.151981 0.407024 0)
(-0.498552 0.737151 0)
(-1.47032 0.751904 0)
(-1.81046 0.747346 0)
(-1.84092 0.742681 0)
(-1.78815 0.737271 0)
(-1.72032 0.7306 0)
(-1.65147 0.722632 0)
(-1.58411 0.713442 0)
(-1.51869 0.703129 0)
(-1.45534 0.691801 0)
(-1.39407 0.679569 0)
(-1.3349 0.666545 0)
(-1.27782 0.652843 0)
(-1.22283 0.63857 0)
(-1.16989 0.623831 0)
(-1.11898 0.608725 0)
(-1.07004 0.593347 0)
(-1.02304 0.577782 0)
(-0.977908 0.562111 0)
(-0.934602 0.546406 0)
(-0.893054 0.530734 0)
(-0.853201 0.515153 0)
(-0.814976 0.499717 0)
(-0.778315 0.484471 0)
(-0.743151 0.469457 0)
(-0.709418 0.454711 0)
(-0.677052 0.440262 0)
(-0.645988 0.426138 0)
(-0.616163 0.412359 0)
(-0.587514 0.398945 0)
(-0.559983 0.385911 0)
(-0.533512 0.373269 0)
(-0.508044 0.36103 0)
(-0.483525 0.3492 0)
(-0.459902 0.337785 0)
(-0.437123 0.32679 0)
(-0.415139 0.316216 0)
(-0.393903 0.306065 0)
(-0.373369 0.296338 0)
(-0.353494 0.287032 0)
(-0.334232 0.278148 0)
(-0.315543 0.269684 0)
(-0.297405 0.261636 0)
(-0.279738 0.253868 0)
(-0.262506 0.246365 0)
(-0.245711 0.239254 0)
(-0.229303 0.232546 0)
(-0.213243 0.226236 0)
(-0.197497 0.220319 0)
(-0.182031 0.214792 0)
(-0.166811 0.209649 0)
(-0.151802 0.204887 0)
(-0.136973 0.200503 0)
(-0.122289 0.196491 0)
(-0.107719 0.192849 0)
(-0.0932307 0.189572 0)
(-0.0787911 0.186659 0)
(-0.064368 0.184104 0)
(-0.0499283 0.181906 0)
(-0.035439 0.18006 0)
(-0.0208665 0.178564 0)
(-0.00617683 0.177415 0)
(0.00866427 0.17661 0)
(0.0236916 0.176145 0)
(0.0389407 0.176017 0)
(0.0544477 0.176222 0)
(0.07025 0.176757 0)
(0.0863857 0.177617 0)
(0.102894 0.178795 0)
(0.119816 0.180288 0)
(0.137191 0.182087 0)
(0.155063 0.184184 0)
(0.173473 0.186572 0)
(0.192466 0.189238 0)
(0.212088 0.192172 0)
(0.232385 0.195359 0)
(0.253404 0.198783 0)
(0.275194 0.202426 0)
(0.297802 0.206267 0)
(0.321278 0.210283 0)
(0.34567 0.214447 0)
(0.371027 0.218729 0)
(0.397398 0.223097 0)
(0.424829 0.227515 0)
(0.453364 0.231942 0)
(0.483048 0.236337 0)
(0.51392 0.240653 0)
(0.546018 0.244841 0)
(0.579375 0.248851 0)
(0.614018 0.252629 0)
(0.649974 0.256123 0)
(0.687258 0.259277 0)
(0.725871 0.262042 0)
(0.76575 0.264366 0)
(0.806514 0.266209 0)
(0.84608 0.26757 0)
(0.873974 0.268644 0)
(0.846221 0.270702 0)
(0.660253 0.280274 0)
(0.153132 0.347491 0)
(-0.500279 0.633136 0)
(-1.47588 0.645686 0)
(-1.81966 0.641996 0)
(-1.85344 0.63839 0)
(-1.80372 0.634263 0)
(-1.73877 0.629147 0)
(-1.6726 0.622996 0)
(-1.60773 0.615856 0)
(-1.5446 0.607799 0)
(-1.4833 0.598898 0)
(-1.42386 0.589235 0)
(-1.36629 0.578891 0)
(-1.31059 0.567949 0)
(-1.25674 0.556491 0)
(-1.20474 0.544597 0)
(-1.15455 0.532345 0)
(-1.10615 0.519806 0)
(-1.0595 0.507053 0)
(-1.01456 0.494149 0)
(-0.971283 0.481157 0)
(-0.929627 0.468132 0)
(-0.889539 0.455125 0)
(-0.850966 0.442183 0)
(-0.813854 0.429349 0)
(-0.778151 0.416659 0)
(-0.743801 0.404148 0)
(-0.710749 0.391845 0)
(-0.678941 0.379776 0)
(-0.648321 0.367964 0)
(-0.618835 0.356428 0)
(-0.590432 0.345186 0)
(-0.563059 0.334251 0)
(-0.536666 0.323635 0)
(-0.511203 0.313348 0)
(-0.486621 0.303398 0)
(-0.462874 0.293791 0)
(-0.439915 0.284533 0)
(-0.417699 0.275626 0)
(-0.396184 0.267074 0)
(-0.375327 0.258878 0)
(-0.355085 0.251038 0)
(-0.335419 0.243556 0)
(-0.316311 0.23643 0)
(-0.297675 0.229524 0)
(-0.27948 0.222832 0)
(-0.261736 0.216485 0)
(-0.244386 0.210486 0)
(-0.227394 0.204834 0)
(-0.210726 0.199524 0)
(-0.194347 0.194554 0)
(-0.178222 0.189921 0)
(-0.162317 0.18562 0)
(-0.1466 0.18165 0)
(-0.131038 0.178006 0)
(-0.115597 0.174686 0)
(-0.100245 0.171687 0)
(-0.0849504 0.169004 0)
(-0.0696792 0.166636 0)
(-0.0543989 0.164578 0)
(-0.0390762 0.162828 0)
(-0.0236774 0.161383 0)
(-0.00816876 0.160238 0)
(0.00748392 0.159391 0)
(0.0233151 0.158837 0)
(0.0393597 0.158573 0)
(0.0556532 0.158594 0)
(0.0722318 0.158896 0)
(0.0891325 0.159472 0)
(0.106393 0.160318 0)
(0.124052 0.161426 0)
(0.142148 0.16279 0)
(0.160721 0.164399 0)
(0.179811 0.166246 0)
(0.19946 0.168318 0)
(0.219708 0.170604 0)
(0.2406 0.173091 0)
(0.262176 0.175762 0)
(0.284481 0.178601 0)
(0.307558 0.181588 0)
(0.33145 0.184702 0)
(0.3562 0.18792 0)
(0.381851 0.191217 0)
(0.408446 0.194564 0)
(0.436024 0.197932 0)
(0.464625 0.201288 0)
(0.494285 0.204598 0)
(0.525042 0.207826 0)
(0.556928 0.210934 0)
(0.589974 0.213885 0)
(0.624205 0.216638 0)
(0.659648 0.219155 0)
(0.696321 0.221395 0)
(0.734229 0.223324 0)
(0.773316 0.224905 0)
(0.813205 0.226112 0)
(0.85182 0.22695 0)
(0.878687 0.227598 0)
(0.84982 0.229161 0)
(0.662707 0.237296 0)
(0.154022 0.295306 0)
(-0.501637 0.53908 0)
(-1.48023 0.549661 0)
(-1.82686 0.546674 0)
(-1.86324 0.543883 0)
(-1.81595 0.540728 0)
(-1.75329 0.536795 0)
(-1.68928 0.532034 0)
(-1.62642 0.526476 0)
(-1.56516 0.520169 0)
(-1.50557 0.513169 0)
(-1.44768 0.505534 0)
(-1.39149 0.497324 0)
(-1.33699 0.4886 0)
(-1.28418 0.479424 0)
(-1.23305 0.469857 0)
(-1.18358 0.459959 0)
(-1.13573 0.449787 0)
(-1.0895 0.439397 0)
(-1.04483 0.428842 0)
(-1.00171 0.418171 0)
(-0.96008 0.407432 0)
(-0.919912 0.396666 0)
(-0.881159 0.385915 0)
(-0.843777 0.375215 0)
(-0.807722 0.3646 0)
(-0.772948 0.354098 0)
(-0.739408 0.343739 0)
(-0.707053 0.333545 0)
(-0.675837 0.32354 0)
(-0.645711 0.31374 0)
(-0.616629 0.304165 0)
(-0.588547 0.294827 0)
(-0.561417 0.28574 0)
(-0.535194 0.276913 0)
(-0.509835 0.268357 0)
(-0.485294 0.260079 0)
(-0.46153 0.252085 0)
(-0.4385 0.24438 0)
(-0.416164 0.236968 0)
(-0.394481 0.229852 0)
(-0.373411 0.223034 0)
(-0.352916 0.216517 0)
(-0.332981 0.210299 0)
(-0.313516 0.204249 0)
(-0.294494 0.19837 0)
(-0.275933 0.19279 0)
(-0.257771 0.187509 0)
(-0.239974 0.182523 0)
(-0.222506 0.177832 0)
(-0.205334 0.173433 0)
(-0.188423 0.169323 0)
(-0.171739 0.165501 0)
(-0.15525 0.161963 0)
(-0.138922 0.158708 0)
(-0.122723 0.155731 0)
(-0.106621 0.153031 0)
(-0.0905821 0.150605 0)
(-0.0745745 0.148449 0)
(-0.0585649 0.14656 0)
(-0.0425201 0.144936 0)
(-0.0264068 0.143573 0)
(-0.0101913 0.142468 0)
(0.00615994 0.141617 0)
(0.0226808 0.141015 0)
(0.0394052 0.14066 0)
(0.0563681 0.140546 0)
(0.0736045 0.140668 0)
(0.0911505 0.14102 0)
(0.109043 0.141597 0)
(0.127317 0.142392 0)
(0.146012 0.143396 0)
(0.165163 0.144603 0)
(0.18481 0.146001 0)
(0.204989 0.147582 0)
(0.225741 0.149332 0)
(0.247105 0.151241 0)
(0.26912 0.153293 0)
(0.291825 0.155474 0)
(0.315261 0.157766 0)
(0.339465 0.160151 0)
(0.364477 0.162609 0)
(0.390337 0.165118 0)
(0.417081 0.167656 0)
(0.444747 0.170198 0)
(0.47337 0.172718 0)
(0.502985 0.175189 0)
(0.533624 0.177583 0)
(0.56532 0.179871 0)
(0.5981 0.182024 0)
(0.631992 0.184013 0)