/*--------------------------------*- C++ -*----------------------------------*\
| =========                 |                                                 |
| \\      /  F ield         | OpenFOAM: The Open Source CFD Toolbox           |
|  \\    /   O peration     | Version:  2406                                  |
|   \\  /    A nd           | Website:  www.openfoam.com                      |
|    \\/     M anipulation  |                                                 |
\*---------------------------------------------------------------------------*/
FoamFile
{
    version     2.0;
    format      ascii;
    arch        "LSB;label=32;scalar=64";
    class       volScalarField;
    location    "10";
    object      nut;
}
// * * * * * * * * * * * * * * * * * * * * * * * * * * * * * * * * * * * * * //

dimensions      [0 2 -1 0 0 0 0];

internalField   nonuniform List<scalar> 
38016
(
2.41704e-08
2.41704e-08
2.41704e-08
2.41704e-08
2.41704e-08
2.41704e-08
2.41704e-08
2.41704e-08
2.41704e-08
2.41704e-08
2.41705e-08
2.41705e-08
2.41705e-08
2.41705e-08
2.41705e-08
2.41705e-08
2.41707e-08
2.4171e-08
2.41716e-08
2.41726e-08
2.41741e-08
2.41767e-08
2.4181e-08
2.41883e-08
2.42013e-08
2.42221e-08
2.42497e-08
2.42836e-08
2.43222e-08
2.43636e-08
2.44066e-08
2.44487e-08
2.44894e-08
2.45275e-08
2.45606e-08
2.45885e-08
2.46142e-08
2.46347e-08
2.46482e-08
2.46581e-08
2.46682e-08
2.46739e-08
2.46761e-08
2.46839e-08
2.47042e-08
2.47307e-08
2.47557e-08
2.47757e-08
2.41704e-08
2.41704e-08
2.41704e-08
2.41704e-08
2.41704e-08
2.41704e-08
2.41704e-08
2.41704e-08
2.41704e-08
2.41705e-08
2.41705e-08
2.41705e-08
2.41705e-08
2.41705e-08
2.41705e-08
2.41705e-08
2.41707e-08
2.4171e-08
2.41716e-08
2.41727e-08
2.41742e-08
2.41769e-08
2.41813e-08
2.41887e-08
2.42019e-08
2.42231e-08
2.42512e-08
2.42857e-08
2.43248e-08
2.43668e-08
2.44102e-08
2.44524e-08
2.44929e-08
2.45304e-08
2.45625e-08
2.45896e-08
2.46136e-08
2.46315e-08
2.46433e-08
2.46517e-08
2.46584e-08
2.46617e-08
2.46621e-08
2.46709e-08
2.4695e-08
2.47207e-08
2.47466e-08
2.477e-08
2.41704e-08
2.41704e-08
2.41704e-08
2.41704e-08
2.41704e-08
2.41704e-08
2.41704e-08
2.41704e-08
2.41704e-08
2.41705e-08
2.41705e-08
2.41705e-08
2.41705e-08
2.41705e-08
2.41705e-08
2.41705e-08
2.41707e-08
2.4171e-08
2.41717e-08
2.41728e-08
2.41744e-08
2.41772e-08
2.41819e-08
2.41896e-08
2.42032e-08
2.4225e-08
2.42537e-08
2.42889e-08
2.43286e-08
2.43709e-08
2.44143e-08
2.44562e-08
2.44958e-08
2.45322e-08
2.45628e-08
2.45885e-08
2.46108e-08
2.46265e-08
2.46366e-08
2.46444e-08
2.46496e-08
2.46517e-08
2.46521e-08
2.46595e-08
2.46817e-08
2.47065e-08
2.47341e-08
2.47646e-08
2.41704e-08
2.41704e-08
2.41704e-08
2.41704e-08
2.41704e-08
2.41704e-08
2.41704e-08
2.41704e-08
2.41704e-08
2.41705e-08
2.41705e-08
2.41705e-08
2.41705e-08
2.41705e-08
2.41705e-08
2.41705e-08
2.41707e-08
2.41711e-08
2.41718e-08
2.4173e-08
2.41747e-08
2.41776e-08
2.41824e-08
2.41904e-08
2.42044e-08
2.42267e-08
2.4256e-08
2.42917e-08
2.43318e-08
2.43743e-08
2.44176e-08
2.44588e-08
2.44976e-08
2.45327e-08
2.4562e-08
2.45863e-08
2.46066e-08
2.46209e-08
2.46301e-08
2.46365e-08
2.46407e-08
2.46427e-08
2.46443e-08
2.46495e-08
2.46695e-08
2.46935e-08
2.47248e-08
2.47685e-08
2.41704e-08
2.41704e-08
2.41704e-08
2.41704e-08
2.41704e-08
2.41704e-08
2.41704e-08
2.41704e-08
2.41705e-08
2.41705e-08
2.41705e-08
2.41705e-08
2.41705e-08
2.41706e-08
2.41705e-08
2.41706e-08
2.41707e-08
2.41711e-08
2.41718e-08
2.41731e-08
2.41749e-08
2.41779e-08
2.41829e-08
2.41912e-08
2.42055e-08
2.42283e-08
2.42581e-08
2.42943e-08
2.43347e-08
2.43771e-08
2.44202e-08
2.44608e-08
2.44985e-08
2.45323e-08
2.45602e-08
2.4583e-08
2.46014e-08
2.46143e-08
2.46224e-08
2.46275e-08
2.46307e-08
2.46325e-08
2.46351e-08
2.46417e-08
2.46591e-08
2.4683e-08
2.47215e-08
2.47884e-08
2.41705e-08
2.41704e-08
2.41704e-08
2.41704e-08
2.41704e-08
2.41704e-08
2.41704e-08
2.41704e-08
2.41705e-08
2.41705e-08
2.41705e-08
2.41705e-08
2.41706e-08
2.41706e-08
2.41705e-08
2.41706e-08
2.41708e-08
2.41712e-08
2.41719e-08
2.41732e-08
2.41751e-08
2.41783e-08
2.41834e-08
2.41919e-08
2.42066e-08
2.42298e-08
2.42601e-08
2.42966e-08
2.43371e-08
2.43795e-08
2.44221e-08
2.44619e-08
2.44985e-08
2.4531e-08
2.45573e-08
2.45785e-08
2.4595e-08
2.46062e-08
2.4613e-08
2.46169e-08
2.4619e-08
2.46204e-08
2.46234e-08
2.4631e-08
2.46493e-08
2.46737e-08
2.47207e-08
2.48085e-08
2.41705e-08
2.41704e-08
2.41704e-08
2.41704e-08
2.41704e-08
2.41704e-08
2.41704e-08
2.41704e-08
2.41705e-08
2.41705e-08
2.41705e-08
2.41705e-08
2.41706e-08
2.41706e-08
2.41706e-08
2.41706e-08
2.41708e-08
2.41712e-08
2.4172e-08
2.41734e-08
2.41753e-08
2.41786e-08
2.4184e-08
2.41926e-08
2.42076e-08
2.42312e-08
2.42617e-08
2.42985e-08
2.43391e-08
2.43811e-08
2.44231e-08
2.4462e-08
2.44974e-08
2.45283e-08
2.4553e-08
2.45725e-08
2.45871e-08
2.45967e-08
2.46021e-08
2.46048e-08
2.46061e-08
2.46068e-08
2.461e-08
2.46181e-08
2.46373e-08
2.46629e-08
2.47171e-08
2.48308e-08
2.41705e-08
2.41704e-08
2.41704e-08
2.41704e-08
2.41704e-08
2.41704e-08
2.41704e-08
2.41704e-08
2.41705e-08
2.41705e-08
2.41705e-08
2.41706e-08
2.41706e-08
2.41706e-08
2.41706e-08
2.41706e-08
2.41708e-08
2.41713e-08
2.41721e-08
2.41735e-08
2.41756e-08
2.4179e-08
2.41844e-08
2.41933e-08
2.42085e-08
2.42324e-08
2.42631e-08
2.42999e-08
2.43404e-08
2.4382e-08
2.44232e-08
2.4461e-08
2.4495e-08
2.45243e-08
2.45474e-08
2.45651e-08
2.45778e-08
2.45858e-08
2.459e-08
2.45918e-08
2.45921e-08
2.45923e-08
2.45955e-08
2.4604e-08
2.4624e-08
2.465e-08
2.47121e-08
2.48564e-08
2.41705e-08
2.41704e-08
2.41704e-08
2.41704e-08
2.41704e-08
2.41704e-08
2.41704e-08
2.41705e-08
2.41705e-08
2.41705e-08
2.41705e-08
2.41706e-08
2.41706e-08
2.41706e-08
2.41706e-08
2.41706e-08
2.41708e-08
2.41713e-08
2.41722e-08
2.41737e-08
2.41758e-08
2.41793e-08
2.41849e-08
2.41939e-08
2.42093e-08
2.42333e-08
2.42641e-08
2.43008e-08
2.43409e-08
2.43819e-08
2.44222e-08
2.44587e-08
2.44912e-08
2.45189e-08
2.45402e-08
2.45562e-08
2.45672e-08
2.45737e-08
2.45769e-08
2.45778e-08
2.45773e-08
2.4577e-08
2.45802e-08
2.45894e-08
2.46098e-08
2.46357e-08
2.47057e-08
2.48851e-08
2.41705e-08
2.41704e-08
2.41704e-08
2.41704e-08
2.41704e-08
2.41704e-08
2.41704e-08
2.41705e-08
2.41705e-08
2.41705e-08
2.41706e-08
2.41706e-08
2.41706e-08
2.41706e-08
2.41706e-08
2.41707e-08
2.41709e-08
2.41714e-08
2.41723e-08
2.41738e-08
2.4176e-08
2.41796e-08
2.41853e-08
2.41945e-08
2.421e-08
2.4234e-08
2.42647e-08
2.43011e-08
2.43407e-08
2.43809e-08
2.442e-08
2.44552e-08
2.44861e-08
2.45121e-08
2.45317e-08
2.4546e-08
2.45553e-08
2.45606e-08
2.4563e-08
2.4563e-08
2.45616e-08
2.45609e-08
2.45644e-08
2.45757e-08
2.45949e-08
2.46202e-08
2.46979e-08
2.49166e-08
2.41705e-08
2.41704e-08
2.41704e-08
2.41704e-08
2.41704e-08
2.41704e-08
2.41705e-08
2.41705e-08
2.41705e-08
2.41705e-08
2.41706e-08
2.41706e-08
2.41706e-08
2.41707e-08
2.41706e-08
2.41707e-08
2.41709e-08
2.41714e-08
2.41723e-08
2.4174e-08
2.41762e-08
2.41799e-08
2.41857e-08
2.4195e-08
2.42105e-08
2.42344e-08
2.42649e-08
2.43009e-08
2.43397e-08
2.43788e-08
2.44167e-08
2.44504e-08
2.44796e-08
2.45039e-08
2.45219e-08
2.45346e-08
2.45424e-08
2.45466e-08
2.45482e-08
2.45474e-08
2.45452e-08
2.45445e-08
2.45485e-08
2.45616e-08
2.45798e-08
2.4604e-08
2.4689e-08
2.49504e-08
2.41705e-08
2.41704e-08
2.41704e-08
2.41704e-08
2.41704e-08
2.41704e-08
2.41705e-08
2.41705e-08
2.41705e-08
2.41705e-08
2.41706e-08
2.41706e-08
2.41706e-08
2.41707e-08
2.41707e-08
2.41707e-08
2.41709e-08
2.41715e-08
2.41724e-08
2.41741e-08
2.41764e-08
2.41801e-08
2.41861e-08
2.41953e-08
2.42108e-08
2.42345e-08
2.42646e-08
2.42999e-08
2.43379e-08
2.43758e-08
2.44122e-08
2.44443e-08
2.44718e-08
2.44945e-08
2.45109e-08
2.4522e-08
2.45285e-08
2.45318e-08
2.45327e-08
2.4531e-08
2.45283e-08
2.4528e-08
2.45334e-08
2.45477e-08
2.4565e-08
2.45875e-08
2.46789e-08
2.49862e-08
2.41705e-08
2.41704e-08
2.41704e-08
2.41704e-08
2.41704e-08
2.41704e-08
2.41705e-08
2.41705e-08
2.41705e-08
2.41705e-08
2.41706e-08
2.41706e-08
2.41707e-08
2.41707e-08
2.41707e-08
2.41707e-08
2.4171e-08
2.41715e-08
2.41725e-08
2.41742e-08
2.41766e-08
2.41804e-08
2.41863e-08
2.41956e-08
2.42109e-08
2.42344e-08
2.42638e-08
2.42983e-08
2.43352e-08
2.43717e-08
2.44066e-08
2.44369e-08
2.44628e-08
2.44838e-08
2.44987e-08
2.45084e-08
2.45138e-08
2.45164e-08
2.45165e-08
2.4514e-08
2.45114e-08
2.45122e-08
2.45209e-08
2.45349e-08
2.45512e-08
2.45713e-08
2.46678e-08
2.50239e-08
2.41705e-08
2.41704e-08
2.41704e-08
2.41704e-08
2.41704e-08
2.41704e-08
2.41705e-08
2.41705e-08
2.41705e-08
2.41706e-08
2.41706e-08
2.41706e-08
2.41707e-08
2.41707e-08
2.41707e-08
2.41708e-08
2.4171e-08
2.41715e-08
2.41726e-08
2.41743e-08
2.41767e-08
2.41806e-08
2.41866e-08
2.41958e-08
2.42109e-08
2.42338e-08
2.42625e-08
2.4296e-08
2.43316e-08
2.43665e-08
2.43997e-08
2.44283e-08
2.44525e-08
2.4472e-08
2.44856e-08
2.44941e-08
2.44985e-08
2.45004e-08
2.44997e-08
2.44967e-08
2.44949e-08
2.44979e-08
2.45093e-08
2.45236e-08
2.45389e-08
2.45562e-08
2.4656e-08
2.5063e-08
2.41705e-08
2.41704e-08
2.41704e-08
2.41704e-08
2.41704e-08
2.41704e-08
2.41705e-08
2.41705e-08
2.41705e-08
2.41706e-08
2.41706e-08
2.41707e-08
2.41707e-08
2.41707e-08
2.41707e-08
2.41708e-08
2.4171e-08
2.41716e-08
2.41726e-08
2.41744e-08
2.41769e-08
2.41808e-08
2.41867e-08
2.41959e-08
2.42107e-08
2.42329e-08
2.42607e-08
2.4293e-08
2.43271e-08
2.43603e-08
2.43917e-08
2.44186e-08
2.44412e-08
2.44592e-08
2.44716e-08
2.44791e-08
2.44826e-08
2.44838e-08
2.44824e-08
2.44797e-08
2.44794e-08
2.44865e-08
2.44995e-08
2.45145e-08
2.45288e-08
2.45432e-08
2.46437e-08
2.51031e-08
2.41705e-08
2.41704e-08
2.41705e-08
2.41704e-08
2.41704e-08
2.41705e-08
2.41705e-08
2.41705e-08
2.41705e-08
2.41706e-08
2.41706e-08
2.41707e-08
2.41707e-08
2.41708e-08
2.41708e-08
2.41708e-08
2.4171e-08
2.41716e-08
2.41727e-08
2.41745e-08
2.4177e-08
2.41809e-08
2.41868e-08
2.41959e-08
2.42102e-08
2.42317e-08
2.42584e-08
2.42892e-08
2.43217e-08
2.43531e-08
2.43827e-08
2.44078e-08
2.44289e-08
2.44456e-08
2.4457e-08
2.44636e-08
2.44664e-08
2.44668e-08
2.44651e-08
2.44633e-08
2.44657e-08
2.4477e-08
2.44918e-08
2.45079e-08
2.45209e-08
2.45318e-08
2.4631e-08
2.51436e-08
2.41705e-08
2.41704e-08
2.41705e-08
2.41704e-08
2.41704e-08
2.41705e-08
2.41705e-08
2.41705e-08
2.41706e-08
2.41706e-08
2.41707e-08
2.41707e-08
2.41707e-08
2.41708e-08
2.41708e-08
2.41709e-08
2.41711e-08
2.41716e-08
2.41727e-08
2.41746e-08
2.41771e-08
2.4181e-08
2.41869e-08
2.41957e-08
2.42096e-08
2.42301e-08
2.42556e-08
2.42848e-08
2.43155e-08
2.4345e-08
2.43727e-08
2.4396e-08
2.44157e-08
2.44313e-08
2.44419e-08
2.44478e-08
2.44498e-08
2.44496e-08
2.44482e-08
2.44482e-08
2.44551e-08
2.44693e-08
2.44866e-08
2.45042e-08
2.45155e-08
2.45216e-08
2.46181e-08
2.51841e-08
2.41705e-08
2.41704e-08
2.41705e-08
2.41705e-08
2.41705e-08
2.41705e-08
2.41705e-08
2.41705e-08
2.41706e-08
2.41706e-08
2.41707e-08
2.41707e-08
2.41708e-08
2.41708e-08
2.41708e-08
2.41709e-08
2.41711e-08
2.41717e-08
2.41727e-08
2.41746e-08
2.41772e-08
2.41811e-08
2.41868e-08
2.41954e-08
2.42087e-08
2.42282e-08
2.42522e-08
2.42797e-08
2.43085e-08
2.43361e-08
2.43618e-08
2.43835e-08
2.44019e-08
2.44166e-08
2.44266e-08
2.44318e-08
2.44329e-08
2.44325e-08
2.44322e-08
2.4435e-08
2.44467e-08
2.44637e-08
2.44845e-08
2.45041e-08
2.4513e-08
2.45123e-08
2.46053e-08
2.52236e-08
2.41705e-08
2.41704e-08
2.41705e-08
2.41705e-08
2.41705e-08
2.41705e-08
2.41705e-08
2.41705e-08
2.41706e-08
2.41706e-08
2.41707e-08
2.41707e-08
2.41708e-08
2.41709e-08
2.41709e-08
2.41709e-08
2.41711e-08
2.41717e-08
2.41728e-08
2.41747e-08
2.41772e-08
2.41811e-08
2.41867e-08
2.4195e-08
2.42076e-08
2.42259e-08
2.42484e-08
2.4274e-08
2.43008e-08
2.43264e-08
2.43503e-08
2.43704e-08
2.43877e-08
2.44017e-08
2.44112e-08
2.44156e-08
2.44161e-08
2.44161e-08
2.44175e-08
2.44249e-08
2.44401e-08
2.4461e-08
2.44866e-08
2.45089e-08
2.45146e-08
2.45045e-08
2.45926e-08
2.52615e-08
2.41706e-08
2.41704e-08
2.41705e-08
2.41705e-08
2.41705e-08
2.41705e-08
2.41705e-08
2.41705e-08
2.41706e-08
2.41706e-08
2.41707e-08
2.41708e-08
2.41708e-08
2.41709e-08
2.41709e-08
2.4171e-08
2.41712e-08
2.41717e-08
2.41728e-08
2.41747e-08
2.41772e-08
2.4181e-08
2.41865e-08
2.41945e-08
2.42063e-08
2.42234e-08
2.42441e-08
2.42678e-08
2.42926e-08
2.43161e-08
2.43382e-08
2.43569e-08
2.43733e-08
2.43867e-08
2.43958e-08
2.43994e-08
2.43996e-08
2.44006e-08
2.44047e-08
2.4417e-08
2.44357e-08
2.44625e-08
2.44946e-08
2.45204e-08
2.45217e-08
2.44989e-08
2.45802e-08
2.52966e-08
2.41706e-08
2.41704e-08
2.41705e-08
2.41705e-08
2.41705e-08
2.41705e-08
2.41705e-08
2.41705e-08
2.41706e-08
2.41706e-08
2.41707e-08
2.41708e-08
2.41708e-08
2.41709e-08
2.41709e-08
2.4171e-08
2.41712e-08
2.41717e-08
2.41728e-08
2.41747e-08
2.41772e-08
2.41809e-08
2.41862e-08
2.41938e-08
2.42048e-08
2.42205e-08
2.42395e-08
2.42611e-08
2.42838e-08
2.43054e-08
2.43258e-08
2.43433e-08
2.43589e-08
2.43718e-08
2.43804e-08
2.43834e-08
2.43838e-08
2.43865e-08
2.43951e-08
2.44109e-08
2.4435e-08
2.44696e-08
2.45098e-08
2.45394e-08
2.45355e-08
2.4496e-08
2.45682e-08
2.53278e-08
2.41706e-08
2.41705e-08
2.41705e-08
2.41705e-08
2.41705e-08
2.41705e-08
2.41705e-08
2.41705e-08
2.41706e-08
2.41706e-08
2.41707e-08
2.41708e-08
2.41709e-08
2.41709e-08
2.4171e-08
2.41711e-08
2.41712e-08
2.41717e-08
2.41728e-08
2.41746e-08
2.41771e-08
2.41807e-08
2.41858e-08
2.4193e-08
2.42032e-08
2.42174e-08
2.42345e-08
2.42541e-08
2.42747e-08
2.42945e-08
2.43133e-08
2.43297e-08
2.43447e-08
2.43571e-08
2.43653e-08
2.43678e-08
2.43689e-08
2.43743e-08
2.43874e-08
2.44077e-08
2.44392e-08
2.44836e-08
2.45323e-08
2.45652e-08
2.45563e-08
2.44968e-08
2.45568e-08
2.5354e-08
2.41706e-08
2.41705e-08
2.41705e-08
2.41705e-08
2.41705e-08
2.41705e-08
2.41705e-08
2.41706e-08
2.41706e-08
2.41707e-08
2.41707e-08
2.41708e-08
2.41709e-08
2.4171e-08
2.4171e-08
2.41711e-08
2.41713e-08
2.41718e-08
2.41728e-08
2.41746e-08
2.4177e-08
2.41805e-08
2.41853e-08
2.41921e-08
2.42013e-08
2.42141e-08
2.42294e-08
2.42469e-08
2.42656e-08
2.42835e-08
2.43009e-08
2.43164e-08
2.43307e-08
2.43427e-08
2.43505e-08
2.43527e-08
2.43552e-08
2.43656e-08
2.4382e-08
2.44084e-08
2.44494e-08
2.45044e-08
2.45595e-08
2.45948e-08
2.4582e-08
2.4502e-08
2.4546e-08
2.53738e-08
2.41706e-08
2.41705e-08
2.41705e-08
2.41705e-08
2.41705e-08
2.41705e-08
2.41705e-08
2.41706e-08
2.41706e-08
2.41707e-08
2.41708e-08
2.41708e-08
2.41709e-08
2.4171e-08
2.41711e-08
2.41712e-08
2.41713e-08
2.41718e-08
2.41727e-08
2.41745e-08
2.41769e-08
2.41802e-08
2.41847e-08
2.4191e-08
2.41994e-08
2.42107e-08
2.42241e-08
2.42397e-08
2.42565e-08
2.42729e-08
2.42889e-08
2.43036e-08
2.43172e-08
2.43287e-08
2.43362e-08
2.43383e-08
2.4343e-08
2.43584e-08
2.43796e-08
2.4414e-08
2.44657e-08
2.45292e-08
2.45906e-08
2.46281e-08
2.46109e-08
2.4512e-08
2.45357e-08
2.53859e-08
2.41706e-08
2.41705e-08
2.41705e-08
2.41705e-08
2.41705e-08
2.41705e-08
2.41705e-08
2.41706e-08
2.41706e-08
2.41707e-08
2.41708e-08
2.41709e-08
2.41709e-08
2.4171e-08
2.41711e-08
2.41712e-08
2.41714e-08
2.41718e-08
2.41727e-08
2.41744e-08
2.41767e-08
2.41798e-08
2.41841e-08
2.41899e-08
2.41973e-08
2.42072e-08
2.42189e-08
2.42326e-08
2.42476e-08
2.42626e-08
2.42774e-08
2.42913e-08
2.43042e-08
2.43152e-08
2.43225e-08
2.43245e-08
2.43335e-08
2.43536e-08
2.43811e-08
2.4425e-08
2.4486e-08
2.45577e-08
2.46258e-08
2.46653e-08
2.46429e-08
2.45265e-08
2.45259e-08
2.53892e-08
2.41706e-08
2.41705e-08
2.41705e-08
2.41705e-08
2.41705e-08
2.41705e-08
2.41705e-08
2.41706e-08
2.41706e-08
2.41707e-08
2.41708e-08
2.41709e-08
2.41709e-08
2.41711e-08
2.41711e-08
2.41713e-08
2.41714e-08
2.41718e-08
2.41727e-08
2.41743e-08
2.41764e-08
2.41794e-08
2.41833e-08
2.41886e-08
2.41951e-08
2.42037e-08
2.42139e-08
2.4226e-08
2.42394e-08
2.42529e-08
2.42665e-08
2.42796e-08
2.42917e-08
2.43023e-08
2.43094e-08
2.43115e-08
2.43257e-08
2.43517e-08
2.4387e-08
2.44401e-08
2.45097e-08
2.45902e-08
2.46649e-08
2.47059e-08
2.46777e-08
2.4546e-08
2.45166e-08
2.53825e-08
2.41706e-08
2.41705e-08
2.41705e-08
2.41705e-08
2.41705e-08
2.41705e-08
2.41706e-08
2.41706e-08
2.41707e-08
2.41707e-08
2.41708e-08
2.41709e-08
2.4171e-08
2.41711e-08
2.41712e-08
2.41713e-08
2.41715e-08
2.41718e-08
2.41726e-08
2.41741e-08
2.41762e-08
2.4179e-08
2.41825e-08
2.41872e-08
2.41929e-08
2.42004e-08
2.42093e-08
2.42201e-08
2.42319e-08
2.4244e-08
2.42563e-08
2.42685e-08
2.42799e-08
2.42901e-08
2.4297e-08
2.42994e-08
2.43197e-08
2.43533e-08
2.43969e-08
2.4458e-08
2.45368e-08
2.46263e-08
2.47075e-08
2.47493e-08
2.47147e-08
2.4567e-08
2.45081e-08
2.53651e-08
2.41706e-08
2.41705e-08
2.41705e-08
2.41705e-08
2.41705e-08
2.41705e-08
2.41706e-08
2.41706e-08
2.41707e-08
2.41707e-08
2.41708e-08
2.41709e-08
2.4171e-08
2.41711e-08
2.41712e-08
2.41714e-08
2.41715e-08
2.41718e-08
2.41726e-08
2.4174e-08
2.41759e-08
2.41785e-08
2.41817e-08
2.41858e-08
2.41907e-08
2.41974e-08
2.42053e-08
2.42148e-08
2.42254e-08
2.42361e-08
2.42469e-08
2.42581e-08
2.42688e-08
2.42785e-08
2.42853e-08
2.42886e-08
2.43159e-08
2.43579e-08
2.4409e-08
2.44787e-08
2.45672e-08
2.46656e-08
2.47527e-08
2.47948e-08
2.47531e-08
2.45896e-08
2.45009e-08
2.53365e-08
2.41706e-08
2.41705e-08
2.41705e-08
2.41705e-08
2.41705e-08
2.41705e-08
2.41706e-08
2.41706e-08
2.41707e-08
2.41707e-08
2.41708e-08
2.41709e-08
2.4171e-08
2.41712e-08
2.41712e-08
2.41714e-08
2.41716e-08
2.41718e-08
2.41726e-08
2.41738e-08
2.41756e-08
2.41779e-08
2.41808e-08
2.41844e-08
2.41886e-08
2.41947e-08
2.42016e-08
2.421e-08
2.42193e-08
2.42289e-08
2.42382e-08
2.42485e-08
2.42583e-08
2.42678e-08
2.42746e-08
2.42792e-08
2.43141e-08
2.43647e-08
2.44233e-08
2.45021e-08
2.46003e-08
2.47073e-08
2.47996e-08
2.48412e-08
2.47923e-08
2.46133e-08
2.44951e-08
2.52966e-08
2.41706e-08
2.41705e-08
2.41705e-08
2.41705e-08
2.41705e-08
2.41705e-08
2.41706e-08
2.41706e-08
2.41707e-08
2.41707e-08
2.41709e-08
2.4171e-08
2.4171e-08
2.41712e-08
2.41713e-08
2.41714e-08
2.41716e-08
2.41718e-08
2.41726e-08
2.41737e-08
2.41753e-08
2.41774e-08
2.41799e-08
2.4183e-08
2.41867e-08
2.41921e-08
2.41982e-08
2.42057e-08
2.42136e-08
2.42221e-08
2.42304e-08
2.42396e-08
2.42487e-08
2.4258e-08
2.42652e-08
2.42715e-08
2.4314e-08
2.43728e-08
2.44394e-08
2.45275e-08
2.46354e-08
2.47502e-08
2.48468e-08
2.48873e-08
2.48311e-08
2.46375e-08
2.44905e-08
2.52461e-08
2.41706e-08
2.41705e-08
2.41705e-08
2.41705e-08
2.41705e-08
2.41705e-08
2.41706e-08
2.41706e-08
2.41707e-08
2.41708e-08
2.41709e-08
2.4171e-08
2.41711e-08
2.41712e-08
2.41713e-08
2.41715e-08
2.41717e-08
2.41719e-08
2.41725e-08
2.41736e-08
2.4175e-08
2.41768e-08
2.4179e-08
2.41816e-08
2.4185e-08
2.41898e-08
2.41953e-08
2.42018e-08
2.42085e-08
2.42158e-08
2.42231e-08
2.42316e-08
2.424e-08
2.42494e-08
2.42571e-08
2.42656e-08
2.43152e-08
2.43821e-08
2.4457e-08
2.45543e-08
2.46712e-08
2.47931e-08
2.48931e-08
2.49319e-08
2.48684e-08
2.46616e-08
2.44873e-08
2.51859e-08
2.41707e-08
2.41705e-08
2.41705e-08
2.41705e-08
2.41705e-08
2.41705e-08
2.41706e-08
2.41706e-08
2.41707e-08
2.41708e-08
2.41709e-08
2.4171e-08
2.41711e-08
2.41713e-08
2.41713e-08
2.41715e-08
2.41717e-08
2.41719e-08
2.41725e-08
2.41735e-08
2.41747e-08
2.41763e-08
2.41781e-08
2.41805e-08
2.41835e-08
2.41878e-08
2.41928e-08
2.41984e-08
2.42038e-08
2.42099e-08
2.42165e-08
2.42245e-08
2.42325e-08
2.42423e-08
2.4251e-08
2.42616e-08
2.4317e-08
2.43922e-08
2.44753e-08
2.45813e-08
2.47065e-08
2.48344e-08
2.49368e-08
2.49732e-08
2.49029e-08
2.46845e-08
2.44852e-08
2.51179e-08
2.41707e-08
2.41705e-08
2.41706e-08
2.41705e-08
2.41705e-08
2.41706e-08
2.41706e-08
2.41706e-08
2.41707e-08
2.41708e-08
2.41709e-08
2.4171e-08
2.41711e-08
2.41713e-08
2.41714e-08
2.41715e-08
2.41717e-08
2.41719e-08
2.41724e-08
2.41733e-08
2.41744e-08
2.41758e-08
2.41774e-08
2.41796e-08
2.41823e-08
2.41861e-08
2.41905e-08
2.41953e-08
2.41997e-08
2.42046e-08
2.42109e-08
2.42186e-08
2.42264e-08
2.42371e-08
2.42471e-08
2.42596e-08
2.43194e-08
2.44024e-08
2.44931e-08
2.46073e-08
2.47398e-08
2.48727e-08
2.49763e-08
2.501e-08
2.49332e-08
2.47054e-08
2.44843e-08
2.50444e-08
2.41707e-08
2.41705e-08
2.41706e-08
2.41705e-08
2.41705e-08
2.41706e-08
2.41706e-08
2.41706e-08
2.41707e-08
2.41708e-08
2.41709e-08
2.4171e-08
2.41711e-08
2.41713e-08
2.41714e-08
2.41716e-08
2.41718e-08
2.41719e-08
2.41724e-08
2.41732e-08
2.41741e-08
2.41753e-08
2.41768e-08
2.41787e-08
2.41811e-08
2.41847e-08
2.41885e-08
2.41923e-08
2.41959e-08
2.41999e-08
2.42065e-08
2.4214e-08
2.4222e-08
2.42342e-08
2.4246e-08
2.42599e-08
2.43223e-08
2.44117e-08
2.45093e-08
2.46307e-08
2.47697e-08
2.49064e-08
2.50104e-08
2.5041e-08
2.49583e-08
2.47235e-08
2.44846e-08
2.49683e-08
2.41707e-08
2.41705e-08
2.41706e-08
2.41705e-08
2.41705e-08
2.41706e-08
2.41706e-08
2.41707e-08
2.41707e-08
2.41708e-08
2.41709e-08
2.4171e-08
2.41711e-08
2.41713e-08
2.41714e-08
2.41716e-08
2.41718e-08
2.41719e-08
2.41723e-08
2.41731e-08
2.41739e-08
2.41749e-08
2.41763e-08
2.41779e-08
2.41803e-08
2.41836e-08
2.41867e-08
2.41896e-08
2.41924e-08
2.41962e-08
2.42033e-08
2.4211e-08
2.42196e-08
2.4234e-08
2.42482e-08
2.42629e-08
2.43256e-08
2.44192e-08
2.45226e-08
2.46503e-08
2.47948e-08
2.49344e-08
2.5038e-08
2.50653e-08
2.49775e-08
2.47381e-08
2.44861e-08
2.48928e-08
2.41707e-08
2.41705e-08
2.41706e-08
2.41706e-08
2.41706e-08
2.41706e-08
2.41706e-08
2.41707e-08
2.41708e-08
2.41708e-08
2.41709e-08
2.41711e-08
2.41711e-08
2.41713e-08
2.41714e-08
2.41716e-08
2.41718e-08
2.41719e-08
2.41723e-08
2.41729e-08
2.41737e-08
2.41746e-08
2.41758e-08
2.41773e-08
2.41796e-08
2.41828e-08
2.41852e-08
2.41872e-08
2.41894e-08
2.41937e-08
2.42015e-08
2.42099e-08
2.42197e-08
2.4237e-08
2.42542e-08
2.42689e-08
2.43299e-08
2.44241e-08
2.45317e-08
2.46648e-08
2.48139e-08
2.49556e-08
2.50583e-08
2.50823e-08
2.49903e-08
2.47488e-08
2.44893e-08
2.48218e-08
2.41707e-08
2.41705e-08
2.41706e-08
2.41706e-08
2.41706e-08
2.41706e-08
2.41706e-08
2.41707e-08
2.41708e-08
2.41708e-08
2.41709e-08
2.41711e-08
2.41712e-08
2.41713e-08
2.41714e-08
2.41716e-08
2.41718e-08
2.41719e-08
2.41722e-08
2.41728e-08
2.41734e-08
2.41743e-08
2.41754e-08
2.41768e-08
2.41793e-08
2.41823e-08
2.4184e-08
2.41852e-08
2.41869e-08
2.41927e-08
2.42013e-08
2.42108e-08
2.42224e-08
2.42434e-08
2.42643e-08
2.42785e-08
2.43368e-08
2.44259e-08
2.45358e-08
2.4673e-08
2.48261e-08
2.49693e-08
2.50707e-08
2.50916e-08
2.49964e-08
2.47553e-08
2.44947e-08
2.47587e-08
2.41707e-08
2.41706e-08
2.41706e-08
2.41706e-08
2.41706e-08
2.41706e-08
2.41706e-08
2.41707e-08
2.41708e-08
2.41708e-08
2.41709e-08
2.41711e-08
2.41712e-08
2.41714e-08
2.41715e-08
2.41716e-08
2.41718e-08
2.41719e-08
2.41722e-08
2.41727e-08
2.41732e-08
2.4174e-08
2.41751e-08
2.41764e-08
2.41792e-08
2.4182e-08
2.4183e-08
2.41835e-08
2.41853e-08
2.41929e-08
2.42027e-08
2.4214e-08
2.4228e-08
2.42532e-08
2.42785e-08
2.42917e-08
2.43446e-08
2.44251e-08
2.45343e-08
2.46744e-08
2.48307e-08
2.49749e-08
2.50746e-08
2.50926e-08
2.49954e-08
2.47574e-08
2.45077e-08
2.47071e-08
2.41707e-08
2.41706e-08
2.41706e-08
2.41706e-08
2.41706e-08
2.41706e-08
2.41706e-08
2.41707e-08
2.41708e-08
2.41708e-08
2.4171e-08
2.41711e-08
2.41712e-08
2.41714e-08
2.41715e-08
2.41716e-08
2.41718e-08
2.41719e-08
2.41721e-08
2.41726e-08
2.41731e-08
2.41738e-08
2.41749e-08
2.41762e-08
2.41793e-08
2.41818e-08
2.41822e-08
2.41822e-08
2.41847e-08
2.41942e-08
2.42057e-08
2.42192e-08
2.42364e-08
2.42663e-08
2.42963e-08
2.43088e-08
2.43541e-08
2.44238e-08
2.45274e-08
2.46685e-08
2.48273e-08
2.49719e-08
2.50697e-08
2.5085e-08
2.49871e-08
2.47548e-08
2.45201e-08
2.46693e-08
2.41707e-08
2.41706e-08
2.41706e-08
2.41706e-08
2.41706e-08
2.41706e-08
2.41707e-08
2.41707e-08
2.41708e-08
2.41709e-08
2.4171e-08
2.41711e-08
2.41712e-08
2.41714e-08
2.41715e-08
2.41716e-08
2.41718e-08
2.41719e-08
2.41721e-08
2.41725e-08
2.4173e-08
2.41737e-08
2.41747e-08
2.41762e-08
2.41796e-08
2.41818e-08
2.41815e-08
2.41811e-08
2.41853e-08
2.41965e-08
2.42101e-08
2.42266e-08
2.42475e-08
2.42819e-08
2.43171e-08
2.43295e-08
2.43665e-08
2.44258e-08
2.45163e-08
2.46553e-08
2.48155e-08
2.496e-08
2.50555e-08
2.50685e-08
2.49713e-08
2.47471e-08
2.45328e-08
2.46467e-08
2.41707e-08
2.41706e-08
2.41706e-08
2.41706e-08
2.41706e-08
2.41706e-08
2.41707e-08
2.41707e-08
2.41708e-08
2.41709e-08
2.4171e-08
2.41711e-08
2.41712e-08
2.41714e-08
2.41715e-08
2.41716e-08
2.41718e-08
2.41718e-08
2.41721e-08
2.41725e-08
2.41729e-08
2.41736e-08
2.41747e-08
2.41764e-08
2.41799e-08
2.41818e-08
2.41809e-08
2.41803e-08
2.41867e-08
2.41997e-08
2.42158e-08
2.42356e-08
2.42607e-08
2.42996e-08
2.43402e-08
2.43537e-08
2.43818e-08
2.44291e-08
2.45037e-08
2.46354e-08
2.47952e-08
2.4939e-08
2.5032e-08
2.50431e-08
2.49479e-08
2.47342e-08
2.45467e-08
2.46396e-08
2.41707e-08
2.41706e-08
2.41706e-08
2.41706e-08
2.41706e-08
2.41706e-08
2.41707e-08
2.41707e-08
2.41708e-08
2.41709e-08
2.4171e-08
2.41711e-08
2.41712e-08
2.41714e-08
2.41714e-08
2.41716e-08
2.41718e-08
2.41718e-08
2.4172e-08
2.41725e-08
2.41729e-08
2.41736e-08
2.41748e-08
2.41767e-08
2.41804e-08
2.41819e-08
2.41803e-08
2.41799e-08
2.41885e-08
2.42035e-08
2.42224e-08
2.42459e-08
2.42757e-08
2.43189e-08
2.43648e-08
2.4381e-08
2.44016e-08
2.44364e-08
2.4495e-08
2.46102e-08
2.47667e-08
2.49088e-08
2.49992e-08
2.50089e-08
2.4917e-08
2.47162e-08
2.45649e-08
2.46463e-08
2.41707e-08
2.41706e-08
2.41706e-08
2.41706e-08
2.41706e-08
2.41706e-08
2.41707e-08
2.41707e-08
2.41708e-08
2.41709e-08
2.4171e-08
2.41711e-08
2.41712e-08
2.41714e-08
2.41714e-08
2.41716e-08
2.41718e-08
2.41718e-08
2.4172e-08
2.41725e-08
2.41729e-08
2.41737e-08
2.41751e-08
2.41771e-08
2.41808e-08
2.41819e-08
2.41798e-08
2.418e-08
2.41907e-08
2.42079e-08
2.42298e-08
2.42572e-08
2.42918e-08
2.43393e-08
2.43907e-08
2.44109e-08
2.44266e-08
2.44498e-08
2.44907e-08
2.45824e-08
2.47307e-08
2.48699e-08
2.49574e-08
2.49661e-08
2.48788e-08
2.46934e-08
2.45848e-08
2.46642e-08
2.41707e-08
2.41706e-08
2.41706e-08
2.41706e-08
2.41706e-08
2.41706e-08
2.41707e-08
2.41707e-08
2.41708e-08
2.41709e-08
2.4171e-08
2.41711e-08
2.41712e-08
2.41714e-08
2.41714e-08
2.41716e-08
2.41718e-08
2.41718e-08
2.4172e-08
2.41725e-08
2.4173e-08
2.41738e-08
2.41754e-08
2.41776e-08
2.41812e-08
2.41819e-08
2.41793e-08
2.41806e-08
2.41932e-08
2.42127e-08
2.42377e-08
2.4269e-08
2.43086e-08
2.43606e-08
2.44176e-08
2.44429e-08
2.44565e-08
2.44692e-08
2.44922e-08
2.45573e-08
2.4689e-08
2.48231e-08
2.49072e-08
2.49153e-08
2.4834e-08
2.46667e-08
2.46054e-08
2.46896e-08
2.41707e-08
2.41706e-08
2.41707e-08
2.41706e-08
2.41706e-08
2.41707e-08
2.41707e-08
2.41707e-08
2.41708e-08
2.41709e-08
2.4171e-08
2.41711e-08
2.41712e-08
2.41714e-08
2.41714e-08
2.41715e-08
2.41718e-08
2.41719e-08
2.41721e-08
2.41725e-08
2.41731e-08
2.4174e-08
2.41758e-08
2.41781e-08
2.41816e-08
2.41819e-08
2.41788e-08
2.41816e-08
2.41959e-08
2.42177e-08
2.42458e-08
2.42813e-08
2.43258e-08
2.43826e-08
2.44453e-08
2.44767e-08
2.44908e-08
2.44959e-08
2.45027e-08
2.45421e-08
2.46444e-08
2.47697e-08
2.48498e-08
2.48577e-08
2.47838e-08
2.46382e-08
2.46267e-08
2.47181e-08
2.41707e-08
2.41706e-08
2.41707e-08
2.41706e-08
2.41706e-08
2.41707e-08
2.41707e-08
2.41708e-08
2.41709e-08
2.41709e-08
2.4171e-08
2.41711e-08
2.41712e-08
2.41714e-08
2.41714e-08
2.41715e-08
2.41718e-08
2.41719e-08
2.41721e-08
2.41726e-08
2.41732e-08
2.41743e-08
2.41762e-08
2.41785e-08
2.41819e-08
2.41818e-08
2.41783e-08
2.41827e-08
2.41987e-08
2.42229e-08
2.42542e-08
2.42938e-08
2.43433e-08
2.44052e-08
2.44738e-08
2.45121e-08
2.45289e-08
2.45295e-08
2.45218e-08
2.45339e-08
2.46025e-08
2.47124e-08
2.4787e-08
2.4795e-08
2.473e-08
2.46118e-08
2.46483e-08
2.47455e-08
2.41707e-08
2.41706e-08
2.41707e-08
2.41707e-08
2.41707e-08
2.41707e-08
2.41707e-08
2.41708e-08
2.41709e-08
2.41709e-08
2.4171e-08
2.41711e-08
2.41712e-08
2.41714e-08
2.41714e-08
2.41715e-08
2.41718e-08
2.41719e-08
2.41722e-08
2.41727e-08
2.41734e-08
2.41746e-08
2.41766e-08
2.4179e-08
2.41821e-08
2.41816e-08
2.41778e-08
2.41839e-08
2.42015e-08
2.42281e-08
2.42627e-08
2.43065e-08
2.43608e-08
2.44282e-08
2.45028e-08
2.45486e-08
2.45702e-08
2.45692e-08
2.45502e-08
2.45371e-08
2.45724e-08
2.4655e-08
2.47216e-08
2.47296e-08
2.46754e-08
2.46005e-08
2.46691e-08
2.47685e-08
2.41707e-08
2.41707e-08
2.41707e-08
2.41707e-08
2.41707e-08
2.41707e-08
2.41707e-08
2.41708e-08
2.41709e-08
2.41709e-08
2.4171e-08
2.41711e-08
2.41712e-08
2.41714e-08
2.41714e-08
2.41715e-08
2.41718e-08
2.41719e-08
2.41722e-08
2.41729e-08
2.41736e-08
2.4175e-08
2.4177e-08
2.41794e-08
2.41823e-08
2.41813e-08
2.41774e-08
2.41852e-08
2.42043e-08
2.42333e-08
2.42712e-08
2.43193e-08
2.43784e-08
2.44513e-08
2.4532e-08
2.45862e-08
2.46141e-08
2.4614e-08
2.45873e-08
2.45525e-08
2.45536e-08
2.46045e-08
2.4658e-08
2.46658e-08
2.46245e-08
2.45932e-08
2.46892e-08
2.47853e-08
2.41707e-08
2.41707e-08
2.41707e-08
2.41707e-08
2.41707e-08
2.41707e-08
2.41708e-08
2.41708e-08
2.41709e-08
2.4171e-08
2.41711e-08
2.41712e-08
2.41712e-08
2.41714e-08
2.41715e-08
2.41715e-08
2.41718e-08
2.4172e-08
2.41723e-08
2.4173e-08
2.41739e-08
2.41753e-08
2.41774e-08
2.41797e-08
2.41823e-08
2.4181e-08
2.41772e-08
2.41864e-08
2.42071e-08
2.42384e-08
2.42797e-08
2.4332e-08
2.43958e-08
2.44741e-08
2.45612e-08
2.46244e-08
2.46602e-08
2.46633e-08
2.46317e-08
2.45795e-08
2.45489e-08
2.45727e-08
2.46034e-08
2.461e-08
2.45848e-08
2.45963e-08
2.471e-08
2.47956e-08
2.41707e-08
2.41707e-08
2.41707e-08
2.41707e-08
2.41707e-08
2.41707e-08
2.41708e-08
2.41708e-08
2.41709e-08
2.4171e-08
2.41711e-08
2.41712e-08
2.41712e-08
2.41714e-08
2.41715e-08
2.41716e-08
2.41718e-08
2.4172e-08
2.41724e-08
2.41732e-08
2.41741e-08
2.41756e-08
2.41778e-08
2.418e-08
2.41823e-08
2.41807e-08
2.41771e-08
2.41877e-08
2.42099e-08
2.42434e-08
2.4288e-08
2.43445e-08
2.44129e-08
2.44962e-08
2.45899e-08
2.46628e-08
2.47081e-08
2.47166e-08
2.46823e-08
2.46172e-08
2.45611e-08
2.45547e-08
2.45714e-08
2.45733e-08
2.45611e-08
2.46103e-08
2.47326e-08
2.48011e-08
2.41707e-08
2.41707e-08
2.41707e-08
2.41707e-08
2.41707e-08
2.41707e-08
2.41708e-08
2.41708e-08
2.41709e-08
2.4171e-08
2.41711e-08
2.41712e-08
2.41713e-08
2.41714e-08
2.41715e-08
2.41716e-08
2.41718e-08
2.41721e-08
2.41725e-08
2.41733e-08
2.41744e-08
2.41759e-08
2.4178e-08
2.41802e-08
2.41823e-08
2.41803e-08
2.41773e-08
2.4189e-08
2.42126e-08
2.42483e-08
2.4296e-08
2.43567e-08
2.44295e-08
2.45173e-08
2.46176e-08
2.47007e-08
2.47568e-08
2.47735e-08
2.47389e-08
2.46639e-08
2.45879e-08
2.45552e-08