/*--------------------------------*- C++ -*----------------------------------*\
| =========                 |                                                 |
| \\      /  F ield         | OpenFOAM: The Open Source CFD Toolbox           |
|  \\    /   O peration     | Version:  2406                                  |
|   \\  /    A nd           | Website:  www.openfoam.com                      |
|    \\/     M anipulation  |                                                 |
\*---------------------------------------------------------------------------*/
FoamFile
{
    version     2.0;
    format      ascii;
    arch        "LSB;label=32;scalar=64";
    class       volScalarField;
    location    "10";
    object      nuTilda;
}
// * * * * * * * * * * * * * * * * * * * * * * * * * * * * * * * * * * * * * //

dimensions      [0 2 -1 0 0 0 0];

internalField   nonuniform List<scalar> 
38016
(
8.67501e-06
8.675e-06
8.67501e-06
8.67501e-06
8.67501e-06
8.67501e-06
8.67501e-06
8.67501e-06
8.67501e-06
8.67501e-06
8.67501e-06
8.67501e-06
8.67501e-06
8.67502e-06
8.67502e-06
8.67502e-06
8.67503e-06
8.67506e-06
8.67511e-06
8.6752e-06
8.67534e-06
8.67557e-06
8.67596e-06
8.67662e-06
8.67779e-06
8.67965e-06
8.68212e-06
8.68517e-06
8.68862e-06
8.69232e-06
8.69617e-06
8.69992e-06
8.70355e-06
8.70694e-06
8.70988e-06
8.71236e-06
8.71464e-06
8.71646e-06
8.71765e-06
8.71853e-06
8.71942e-06
8.71993e-06
8.72012e-06
8.72081e-06
8.72261e-06
8.72495e-06
8.72716e-06
8.72893e-06
8.67501e-06
8.675e-06
8.67501e-06
8.67501e-06
8.67501e-06
8.67501e-06
8.67501e-06
8.67501e-06
8.67501e-06
8.67501e-06
8.67501e-06
8.67501e-06
8.67502e-06
8.67502e-06
8.67501e-06
8.67502e-06
8.67503e-06
8.67506e-06
8.67511e-06
8.67521e-06
8.67535e-06
8.67559e-06
8.67599e-06
8.67665e-06
8.67784e-06
8.67974e-06
8.68226e-06
8.68535e-06
8.68886e-06
8.69261e-06
8.69649e-06
8.70026e-06
8.70386e-06
8.7072e-06
8.71005e-06
8.71246e-06
8.71458e-06
8.71617e-06
8.71722e-06
8.71796e-06
8.71856e-06
8.71885e-06
8.71888e-06
8.71967e-06
8.7218e-06
8.72407e-06
8.72636e-06
8.72842e-06
8.67501e-06
8.675e-06
8.67501e-06
8.67501e-06
8.67501e-06
8.67501e-06
8.67501e-06
8.67501e-06
8.67501e-06
8.67501e-06
8.67501e-06
8.67501e-06
8.67502e-06
8.67502e-06
8.67502e-06
8.67502e-06
8.67503e-06
8.67506e-06
8.67512e-06
8.67522e-06
8.67537e-06
8.67562e-06
8.67604e-06
8.67673e-06
8.67795e-06
8.67991e-06
8.68249e-06
8.68564e-06
8.68919e-06
8.69298e-06
8.69686e-06
8.70059e-06
8.70412e-06
8.70735e-06
8.71008e-06
8.71236e-06
8.71434e-06
8.71573e-06
8.71662e-06
8.71731e-06
8.71778e-06
8.71796e-06
8.718e-06
8.71866e-06
8.72062e-06
8.72282e-06
8.72526e-06
8.72795e-06
8.67501e-06
8.675e-06
8.67501e-06
8.67501e-06
8.67501e-06
8.67501e-06
8.67501e-06
8.67501e-06
8.67501e-06
8.67501e-06
8.67501e-06
8.67502e-06
8.67502e-06
8.67502e-06
8.67502e-06
8.67502e-06
8.67503e-06
8.67507e-06
8.67513e-06
8.67524e-06
8.67539e-06
8.67565e-06
8.67608e-06
8.6768e-06
8.67806e-06
8.68006e-06
8.68269e-06
8.6859e-06
8.68949e-06
8.69328e-06
8.69714e-06
8.70083e-06
8.70428e-06
8.7074e-06
8.71e-06
8.71216e-06
8.71397e-06
8.71524e-06
8.71605e-06
8.71662e-06
8.71699e-06
8.71717e-06
8.71731e-06
8.71776e-06
8.71954e-06
8.72166e-06
8.72444e-06
8.72829e-06
8.67501e-06
8.67501e-06
8.67501e-06
8.67501e-06
8.67501e-06
8.67501e-06
8.67501e-06
8.67501e-06
8.67501e-06
8.67501e-06
8.67502e-06
8.67502e-06
8.67502e-06
8.67502e-06
8.67502e-06
8.67502e-06
8.67504e-06
8.67507e-06
8.67514e-06
8.67525e-06
8.67541e-06
8.67568e-06
8.67613e-06
8.67687e-06
8.67816e-06
8.68021e-06
8.68288e-06
8.68613e-06
8.68974e-06
8.69354e-06
8.69738e-06
8.701e-06
8.70436e-06
8.70737e-06
8.70985e-06
8.71187e-06
8.71351e-06
8.71465e-06
8.71537e-06
8.71582e-06
8.7161e-06
8.71626e-06
8.71649e-06
8.71708e-06
8.71862e-06
8.72073e-06
8.72414e-06
8.73005e-06
8.67501e-06
8.67501e-06
8.67501e-06
8.67501e-06
8.67501e-06
8.67501e-06
8.67501e-06
8.67501e-06
8.67501e-06
8.67501e-06
8.67502e-06
8.67502e-06
8.67502e-06
8.67502e-06
8.67502e-06
8.67502e-06
8.67504e-06
8.67508e-06
8.67514e-06
8.67526e-06
8.67543e-06
8.67571e-06
8.67618e-06
8.67694e-06
8.67826e-06
8.68034e-06
8.68306e-06
8.68633e-06
8.68996e-06
8.69374e-06
8.69755e-06
8.7011e-06
8.70436e-06
8.70725e-06
8.70959e-06
8.71147e-06
8.71293e-06
8.71393e-06
8.71453e-06
8.71488e-06
8.71507e-06
8.71519e-06
8.71546e-06
8.71612e-06
8.71775e-06
8.71992e-06
8.72407e-06
8.73182e-06
8.67501e-06
8.67501e-06
8.67501e-06
8.67501e-06
8.67501e-06
8.67501e-06
8.67501e-06
8.67501e-06
8.67501e-06
8.67501e-06
8.67502e-06
8.67502e-06
8.67502e-06
8.67502e-06
8.67502e-06
8.67502e-06
8.67504e-06
8.67508e-06
8.67515e-06
8.67528e-06
8.67545e-06
8.67574e-06
8.67622e-06
8.677e-06
8.67835e-06
8.68047e-06
8.68321e-06
8.6865e-06
8.69013e-06
8.69389e-06
8.69764e-06
8.70111e-06
8.70426e-06
8.70701e-06
8.70921e-06
8.71094e-06
8.71223e-06
8.71308e-06
8.71357e-06
8.71381e-06
8.71392e-06
8.71399e-06
8.71427e-06
8.71498e-06
8.71669e-06
8.71895e-06
8.72376e-06
8.73379e-06
8.67501e-06
8.67501e-06
8.67501e-06
8.67501e-06
8.67501e-06
8.67501e-06
8.67501e-06
8.67501e-06
8.67501e-06
8.67501e-06
8.67502e-06
8.67502e-06
8.67502e-06
8.67502e-06
8.67502e-06
8.67502e-06
8.67504e-06
8.67508e-06
8.67516e-06
8.67529e-06
8.67547e-06
8.67577e-06
8.67627e-06
8.67707e-06
8.67843e-06
8.68057e-06
8.68333e-06
8.68663e-06
8.69025e-06
8.69397e-06
8.69765e-06
8.70102e-06
8.70404e-06
8.70665e-06
8.7087e-06
8.71028e-06
8.71141e-06
8.71212e-06
8.71249e-06
8.71265e-06
8.71268e-06
8.7127e-06
8.71298e-06
8.71373e-06
8.71551e-06
8.71781e-06
8.72331e-06
8.73604e-06
8.67501e-06
8.67501e-06
8.67501e-06
8.67501e-06
8.67501e-06
8.67501e-06
8.67501e-06
8.67501e-06
8.67501e-06
8.67501e-06
8.67502e-06
8.67502e-06
8.67502e-06
8.67503e-06
8.67502e-06
8.67503e-06
8.67505e-06
8.67509e-06
8.67517e-06
8.6753e-06
8.67549e-06
8.6758e-06
8.67631e-06
8.67712e-06
8.6785e-06
8.68066e-06
8.68342e-06
8.68671e-06
8.6903e-06
8.69396e-06
8.69756e-06
8.70082e-06
8.70371e-06
8.70617e-06
8.70807e-06
8.70949e-06
8.71047e-06
8.71105e-06
8.71133e-06
8.71141e-06
8.71136e-06
8.71133e-06
8.71162e-06
8.71244e-06
8.71425e-06
8.71655e-06
8.72274e-06
8.73857e-06
8.67501e-06
8.67501e-06
8.67501e-06
8.67501e-06
8.67501e-06
8.67501e-06
8.67501e-06
8.67501e-06
8.67501e-06
8.67502e-06
8.67502e-06
8.67502e-06
8.67502e-06
8.67503e-06
8.67503e-06
8.67503e-06
8.67505e-06
8.67509e-06
8.67517e-06
8.67531e-06
8.67551e-06
8.67583e-06
8.67635e-06
8.67717e-06
8.67856e-06
8.68072e-06
8.68347e-06
8.68674e-06
8.69028e-06
8.69387e-06
8.69737e-06
8.7005e-06
8.70325e-06
8.70557e-06
8.70732e-06
8.70858e-06
8.70941e-06
8.70988e-06
8.71009e-06
8.71009e-06
8.70997e-06
8.70991e-06
8.71021e-06
8.71123e-06
8.71293e-06
8.71517e-06
8.72206e-06
8.74134e-06
8.67501e-06
8.67501e-06
8.67501e-06
8.67501e-06
8.67501e-06
8.67501e-06
8.67501e-06
8.67501e-06
8.67501e-06
8.67502e-06
8.67502e-06
8.67502e-06
8.67503e-06
8.67503e-06
8.67503e-06
8.67503e-06
8.67505e-06
8.6751e-06
8.67518e-06
8.67533e-06
8.67553e-06
8.67586e-06
8.67638e-06
8.67721e-06
8.67861e-06
8.68076e-06
8.68349e-06
8.68671e-06
8.69019e-06
8.69369e-06
8.69707e-06
8.70007e-06
8.70268e-06
8.70484e-06
8.70644e-06
8.70757e-06
8.70826e-06
8.70864e-06
8.70878e-06
8.7087e-06
8.70851e-06
8.70845e-06
8.70881e-06
8.70997e-06
8.71158e-06
8.71373e-06
8.72126e-06
8.74431e-06
8.67501e-06
8.67501e-06
8.67501e-06
8.67501e-06
8.67501e-06
8.67501e-06
8.67501e-06
8.67501e-06
8.67502e-06
8.67502e-06
8.67502e-06
8.67502e-06
8.67503e-06
8.67503e-06
8.67503e-06
8.67503e-06
8.67505e-06
8.6751e-06
8.67519e-06
8.67534e-06
8.67554e-06
8.67588e-06
8.67641e-06
8.67725e-06
8.67864e-06
8.68077e-06
8.68346e-06
8.68663e-06
8.69003e-06
8.69341e-06
8.69667e-06
8.69953e-06
8.70198e-06
8.704e-06
8.70546e-06
8.70645e-06
8.70703e-06
8.70732e-06
8.7074e-06
8.70725e-06
8.70701e-06
8.70699e-06
8.70746e-06
8.70874e-06
8.71027e-06
8.71227e-06
8.72037e-06
8.74745e-06
8.67501e-06
8.67501e-06
8.67501e-06
8.67501e-06
8.67501e-06
8.67501e-06
8.67501e-06
8.67501e-06
8.67502e-06
8.67502e-06
8.67502e-06
8.67503e-06
8.67503e-06
8.67503e-06
8.67503e-06
8.67504e-06
8.67506e-06
8.6751e-06
8.67519e-06
8.67535e-06
8.67556e-06
8.6759e-06
8.67644e-06
8.67727e-06
8.67865e-06
8.68075e-06
8.68339e-06
8.68648e-06
8.68978e-06
8.69305e-06
8.69616e-06
8.69887e-06
8.70118e-06
8.70305e-06
8.70438e-06
8.70524e-06
8.70572e-06
8.70595e-06
8.70596e-06
8.70574e-06
8.70551e-06
8.70558e-06
8.70635e-06
8.7076e-06
8.70904e-06
8.71083e-06
8.71939e-06
8.75075e-06
8.67502e-06
8.67501e-06
8.67501e-06
8.67501e-06
8.67501e-06
8.67501e-06
8.67501e-06
8.67501e-06
8.67502e-06
8.67502e-06
8.67502e-06
8.67503e-06
8.67503e-06
8.67503e-06
8.67503e-06
8.67504e-06
8.67506e-06
8.67511e-06
8.6752e-06
8.67536e-06
8.67558e-06
8.67592e-06
8.67646e-06
8.67729e-06
8.67865e-06
8.6807e-06
8.68328e-06
8.68628e-06
8.68946e-06
8.69259e-06
8.69555e-06
8.6981e-06
8.70026e-06
8.702e-06
8.70321e-06
8.70397e-06
8.70436e-06
8.70452e-06
8.70446e-06
8.7042e-06
8.70403e-06
8.70431e-06
8.70532e-06
8.7066e-06
8.70796e-06
8.70949e-06
8.71835e-06
8.75418e-06
8.67502e-06
8.67501e-06
8.67501e-06
8.67501e-06
8.67501e-06
8.67501e-06
8.67501e-06
8.67501e-06
8.67502e-06
8.67502e-06
8.67503e-06
8.67503e-06
8.67503e-06
8.67504e-06
8.67504e-06
8.67504e-06
8.67506e-06
8.67511e-06
8.6752e-06
8.67537e-06
8.67559e-06
8.67594e-06
8.67647e-06
8.6773e-06
8.67862e-06
8.68062e-06
8.68312e-06
8.68601e-06
8.68906e-06
8.69203e-06
8.69484e-06
8.69723e-06
8.69925e-06
8.70086e-06
8.70196e-06
8.70263e-06
8.70295e-06
8.70305e-06
8.70293e-06
8.70268e-06
8.70265e-06
8.70329e-06
8.70444e-06
8.70579e-06
8.70705e-06
8.70833e-06
8.71725e-06
8.75768e-06
8.67502e-06
8.67501e-06
8.67501e-06
8.67501e-06
8.67501e-06
8.67501e-06
8.67501e-06
8.67501e-06
8.67502e-06
8.67502e-06
8.67503e-06
8.67503e-06
8.67503e-06
8.67504e-06
8.67504e-06
8.67504e-06
8.67506e-06
8.67511e-06
8.67521e-06
8.67538e-06
8.6756e-06
8.67595e-06
8.67648e-06
8.67729e-06
8.67858e-06
8.68051e-06
8.68291e-06
8.68567e-06
8.68858e-06
8.69139e-06
8.69403e-06
8.69627e-06
8.69815e-06
8.69964e-06
8.70066e-06
8.70125e-06
8.7015e-06
8.70153e-06
8.70139e-06
8.70122e-06
8.70144e-06
8.70244e-06
8.70376e-06
8.7052e-06
8.70635e-06
8.70732e-06
8.71613e-06
8.76123e-06
8.67502e-06
8.67501e-06
8.67501e-06
8.67501e-06
8.67501e-06
8.67501e-06
8.67501e-06
8.67502e-06
8.67502e-06
8.67502e-06
8.67503e-06
8.67503e-06
8.67504e-06
8.67504e-06
8.67504e-06
8.67505e-06
8.67507e-06
8.67512e-06
8.67521e-06
8.67538e-06
8.67561e-06
8.67596e-06
8.67649e-06
8.67728e-06
8.67852e-06
8.68037e-06
8.68265e-06
8.68528e-06
8.68802e-06
8.69066e-06
8.69314e-06
8.69522e-06
8.69698e-06
8.69837e-06
8.69932e-06
8.69984e-06
8.70002e-06
8.7e-06
8.69988e-06
8.69988e-06
8.70049e-06
8.70175e-06
8.7033e-06
8.70487e-06
8.70587e-06
8.70641e-06
8.71499e-06
8.76476e-06
8.67502e-06
8.67501e-06
8.67501e-06
8.67501e-06
8.67501e-06
8.67501e-06
8.67501e-06
8.67502e-06
8.67502e-06
8.67502e-06
8.67503e-06
8.67503e-06
8.67504e-06
8.67504e-06
8.67504e-06
8.67505e-06
8.67507e-06
8.67512e-06
8.67522e-06
8.67539e-06
8.67561e-06
8.67596e-06
8.67648e-06
8.67725e-06
8.67845e-06
8.6802e-06
8.68235e-06
8.68482e-06
8.6874e-06
8.68986e-06
8.69217e-06
8.69411e-06
8.69575e-06
8.69706e-06
8.69795e-06
8.69842e-06
8.69852e-06
8.69848e-06
8.69845e-06
8.6987e-06
8.69975e-06
8.70126e-06
8.70311e-06
8.70485e-06
8.70565e-06
8.70559e-06
8.71385e-06
8.7682e-06
8.67502e-06
8.67501e-06
8.67501e-06
8.67501e-06
8.67501e-06
8.67501e-06
8.67501e-06
8.67502e-06
8.67502e-06
8.67502e-06
8.67503e-06
8.67504e-06
8.67504e-06
8.67505e-06
8.67505e-06
8.67505e-06
8.67507e-06
8.67512e-06
8.67522e-06
8.67539e-06
8.67562e-06
8.67596e-06
8.67647e-06
8.67722e-06
8.67835e-06
8.67999e-06
8.68201e-06
8.68431e-06
8.68671e-06
8.68899e-06
8.69113e-06
8.69294e-06
8.69448e-06
8.69573e-06
8.69658e-06
8.69697e-06
8.69701e-06
8.69701e-06
8.69714e-06
8.6978e-06
8.69915e-06
8.70102e-06
8.7033e-06
8.70529e-06
8.70579e-06
8.7049e-06
8.71272e-06
8.7715e-06
8.67502e-06
8.67501e-06
8.67501e-06
8.67501e-06
8.67501e-06
8.67501e-06
8.67501e-06
8.67502e-06
8.67502e-06
8.67503e-06
8.67503e-06
8.67504e-06
8.67504e-06
8.67505e-06
8.67505e-06
8.67506e-06
8.67507e-06
8.67512e-06
8.67522e-06
8.67539e-06
8.67562e-06
8.67596e-06
8.67645e-06
8.67717e-06
8.67823e-06
8.67976e-06
8.68163e-06
8.68375e-06
8.68597e-06
8.68807e-06
8.69005e-06
8.69173e-06
8.69319e-06
8.69439e-06
8.6952e-06
8.69553e-06
8.69554e-06
8.69563e-06
8.696e-06
8.69709e-06
8.69877e-06
8.70115e-06
8.70401e-06
8.7063e-06
8.70642e-06
8.70439e-06
8.71162e-06
8.77455e-06
8.67502e-06
8.67501e-06
8.67501e-06
8.67501e-06
8.67501e-06
8.67501e-06
8.67502e-06
8.67502e-06
8.67502e-06
8.67503e-06
8.67503e-06
8.67504e-06
8.67504e-06
8.67505e-06
8.67505e-06
8.67506e-06
8.67508e-06
8.67512e-06
8.67522e-06
8.67539e-06
8.67562e-06
8.67595e-06
8.67642e-06
8.67711e-06
8.6781e-06
8.67951e-06
8.68121e-06
8.68315e-06
8.68518e-06
8.68712e-06
8.68894e-06
8.69051e-06
8.6919e-06
8.69306e-06
8.69383e-06
8.6941e-06
8.69413e-06
8.69437e-06
8.69514e-06
8.69655e-06
8.6987e-06
8.70178e-06
8.70536e-06
8.70799e-06
8.70765e-06
8.70414e-06
8.71056e-06
8.77726e-06
8.67502e-06
8.67501e-06
8.67501e-06
8.67501e-06
8.67501e-06
8.67501e-06
8.67502e-06
8.67502e-06
8.67502e-06
8.67503e-06
8.67504e-06
8.67504e-06
8.67505e-06
8.67506e-06
8.67506e-06
8.67507e-06
8.67508e-06
8.67513e-06
8.67522e-06
8.67539e-06
8.67561e-06
8.67593e-06
8.67639e-06
8.67703e-06
8.67795e-06
8.67923e-06
8.68077e-06
8.68252e-06
8.68437e-06
8.68614e-06
8.68782e-06
8.6893e-06
8.69063e-06
8.69174e-06
8.69247e-06
8.6927e-06
8.6928e-06
8.69329e-06
8.69445e-06
8.69626e-06
8.69907e-06
8.70303e-06
8.70736e-06
8.71029e-06
8.7095e-06
8.70421e-06
8.70954e-06
8.77953e-06
8.67502e-06
8.67501e-06
8.67501e-06
8.67501e-06
8.67501e-06
8.67501e-06
8.67502e-06
8.67502e-06
8.67502e-06
8.67503e-06
8.67504e-06
8.67504e-06
8.67505e-06
8.67506e-06
8.67506e-06
8.67507e-06
8.67509e-06
8.67513e-06
8.67522e-06
8.67538e-06
8.6756e-06
8.67591e-06
8.67634e-06
8.67695e-06
8.67779e-06
8.67893e-06
8.6803e-06
8.68188e-06
8.68355e-06
8.68516e-06
8.68672e-06
8.68811e-06
8.68939e-06
8.69046e-06
8.69115e-06
8.69135e-06
8.69157e-06
8.6925e-06
8.69397e-06
8.69632e-06
8.69998e-06
8.70489e-06
8.70978e-06
8.71291e-06
8.71178e-06
8.70467e-06
8.70858e-06
8.78125e-06
8.67502e-06
8.67501e-06
8.67501e-06
8.67501e-06
8.67501e-06
8.67501e-06
8.67502e-06
8.67502e-06
8.67503e-06
8.67503e-06
8.67504e-06
8.67504e-06
8.67505e-06
8.67506e-06
8.67506e-06
8.67507e-06
8.67509e-06
8.67513e-06
8.67521e-06
8.67537e-06
8.67559e-06
8.67589e-06
8.67629e-06
8.67686e-06
8.67761e-06
8.67862e-06
8.67983e-06
8.68123e-06
8.68273e-06
8.6842e-06
8.68564e-06
8.68696e-06
8.68818e-06
8.6892e-06
8.68987e-06
8.69006e-06
8.69049e-06
8.69186e-06
8.69375e-06
8.69683e-06
8.70144e-06
8.70709e-06
8.71255e-06
8.71587e-06
8.71434e-06
8.70556e-06
8.70766e-06
8.7823e-06
8.67502e-06
8.67501e-06
8.67501e-06
8.67501e-06
8.67501e-06
8.67501e-06
8.67502e-06
8.67502e-06
8.67503e-06
8.67503e-06
8.67504e-06
8.67505e-06
8.67505e-06
8.67506e-06
8.67507e-06
8.67508e-06
8.67509e-06
8.67513e-06
8.67521e-06
8.67536e-06
8.67557e-06
8.67585e-06
8.67623e-06
8.67675e-06
8.67742e-06
8.67831e-06
8.67936e-06
8.68059e-06
8.68194e-06
8.68328e-06
8.68461e-06
8.68585e-06
8.68701e-06
8.688e-06
8.68865e-06
8.68883e-06
8.68964e-06
8.69143e-06
8.69389e-06
8.69781e-06
8.70325e-06
8.70962e-06
8.71567e-06
8.71916e-06
8.71718e-06
8.70685e-06
8.70679e-06
8.78258e-06
8.67502e-06
8.67501e-06
8.67501e-06
8.67501e-06
8.67501e-06
8.67502e-06
8.67502e-06
8.67502e-06
8.67503e-06
8.67503e-06
8.67504e-06
8.67505e-06
8.67505e-06
8.67507e-06
8.67507e-06
8.67508e-06
8.6751e-06
8.67513e-06
8.67521e-06
8.67535e-06
8.67555e-06
8.67582e-06
8.67617e-06
8.67664e-06
8.67723e-06
8.678e-06
8.67891e-06
8.68e-06
8.6812e-06
8.68242e-06
8.68363e-06
8.6848e-06
8.68589e-06
8.68684e-06
8.68748e-06
8.68766e-06
8.68893e-06
8.69127e-06
8.69442e-06
8.69916e-06
8.70536e-06
8.71251e-06
8.71914e-06
8.72276e-06
8.72026e-06
8.70859e-06
8.70597e-06
8.782e-06
8.67502e-06
8.67501e-06
8.67502e-06
8.67501e-06
8.67501e-06
8.67502e-06
8.67502e-06
8.67502e-06
8.67503e-06
8.67503e-06
8.67504e-06
8.67505e-06
8.67506e-06
8.67507e-06
8.67508e-06
8.67509e-06
8.6751e-06
8.67513e-06
8.67521e-06
8.67534e-06
8.67553e-06
8.67578e-06
8.6761e-06
8.67652e-06
8.67703e-06
8.6777e-06
8.6785e-06
8.67947e-06
8.68053e-06
8.68162e-06
8.68272e-06
8.68381e-06
8.68483e-06
8.68575e-06
8.68636e-06
8.68658e-06
8.6884e-06
8.6914e-06
8.6953e-06
8.70075e-06
8.70777e-06
8.71571e-06
8.7229e-06
8.7266e-06
8.72354e-06
8.71045e-06
8.70521e-06
8.7805e-06
8.67503e-06
8.67501e-06
8.67502e-06
8.67501e-06
8.67502e-06
8.67502e-06
8.67502e-06
8.67502e-06
8.67503e-06
8.67503e-06
8.67504e-06
8.67505e-06
8.67506e-06
8.67507e-06
8.67508e-06
8.67509e-06
8.67511e-06
8.67513e-06
8.6752e-06
8.67533e-06
8.6755e-06
8.67573e-06
8.67602e-06
8.67639e-06
8.67683e-06
8.67743e-06
8.67814e-06
8.679e-06
8.67994e-06
8.68091e-06
8.68187e-06
8.68288e-06
8.68384e-06
8.68471e-06
8.68532e-06
8.68561e-06
8.68805e-06
8.69182e-06
8.69638e-06
8.7026e-06
8.71047e-06
8.7192e-06
8.7269e-06
8.73061e-06
8.72694e-06
8.71245e-06
8.70457e-06
8.77801e-06
8.67503e-06
8.67501e-06
8.67502e-06
8.67502e-06
8.67502e-06
8.67502e-06
8.67502e-06
8.67502e-06
8.67503e-06
8.67504e-06
8.67505e-06
8.67505e-06
8.67506e-06
8.67508e-06
8.67508e-06
8.6751e-06
8.67511e-06
8.67513e-06
8.6752e-06
8.67531e-06
8.67547e-06
8.67568e-06
8.67594e-06
8.67626e-06
8.67664e-06
8.67719e-06
8.67781e-06
8.67857e-06
8.6794e-06
8.68026e-06
8.6811e-06
8.68202e-06
8.6829e-06
8.68375e-06
8.68436e-06
8.68477e-06
8.6879e-06
8.69242e-06
8.69765e-06
8.70468e-06
8.71341e-06
8.72288e-06
8.73104e-06
8.7347e-06
8.73039e-06
8.71456e-06
8.70405e-06
8.77455e-06
8.67503e-06
8.67501e-06
8.67502e-06
8.67502e-06
8.67502e-06
8.67502e-06
8.67502e-06
8.67502e-06
8.67503e-06
8.67504e-06
8.67505e-06
8.67506e-06
8.67506e-06
8.67508e-06
8.67508e-06
8.6751e-06
8.67512e-06
8.67514e-06
8.6752e-06
8.6753e-06
8.67544e-06
8.67563e-06
8.67586e-06
8.67613e-06
8.67647e-06
8.67696e-06
8.6775e-06
8.67818e-06
8.67889e-06
8.67965e-06
8.68039e-06
8.68122e-06
8.68203e-06
8.68287e-06
8.68351e-06
8.68408e-06
8.68789e-06
8.69314e-06
8.69909e-06
8.70694e-06
8.71652e-06
8.72668e-06
8.7352e-06
8.73877e-06
8.73382e-06
8.71671e-06
8.70365e-06
8.77016e-06
8.67503e-06
8.67501e-06
8.67502e-06
8.67502e-06
8.67502e-06
8.67502e-06
8.67502e-06
8.67503e-06
8.67503e-06
8.67504e-06
8.67505e-06
8.67506e-06
8.67507e-06
8.67508e-06
8.67509e-06
8.6751e-06
8.67512e-06
8.67514e-06
8.6752e-06
8.67529e-06
8.67542e-06
8.67558e-06
8.67578e-06
8.67602e-06
8.67632e-06
8.67675e-06
8.67724e-06
8.67783e-06
8.67843e-06
8.67909e-06
8.67974e-06
8.6805e-06
8.68126e-06
8.6821e-06
8.6828e-06
8.68355e-06
8.688e-06
8.69398e-06
8.70066e-06
8.70932e-06
8.71969e-06
8.73046e-06
8.73927e-06
8.74268e-06
8.7371e-06
8.71884e-06
8.70336e-06
8.76492e-06
8.67503e-06
8.67502e-06
8.67502e-06
8.67502e-06
8.67502e-06
8.67502e-06
8.67502e-06
8.67503e-06
8.67503e-06
8.67504e-06
8.67505e-06
8.67506e-06
8.67507e-06
8.67508e-06
8.67509e-06
8.67511e-06
8.67512e-06
8.67514e-06
8.67519e-06
8.67528e-06
8.67539e-06
8.67553e-06
8.6757e-06
8.67591e-06
8.67619e-06
8.67657e-06
8.67702e-06
8.67753e-06
8.67801e-06
8.67856e-06
8.67914e-06
8.67987e-06
8.68058e-06
8.68147e-06
8.68224e-06
8.68319e-06
8.68816e-06
8.69488e-06
8.70229e-06
8.71172e-06
8.72281e-06
8.73411e-06
8.74311e-06
8.74631e-06
8.74014e-06
8.72087e-06
8.70318e-06
8.75898e-06
8.67503e-06
8.67502e-06
8.67502e-06
8.67502e-06
8.67502e-06
8.67502e-06
8.67502e-06
8.67503e-06
8.67503e-06
8.67504e-06
8.67505e-06
8.67506e-06
8.67507e-06
8.67508e-06
8.67509e-06
8.67511e-06
8.67513e-06
8.67514e-06
8.67519e-06
8.67527e-06
8.67536e-06
8.67549e-06
8.67564e-06
8.67583e-06
8.67607e-06
8.67642e-06
8.67681e-06
8.67724e-06
8.67764e-06
8.67808e-06
8.67864e-06
8.67933e-06
8.68003e-06
8.681e-06
8.68189e-06
8.68301e-06
8.68838e-06
8.69579e-06
8.70388e-06
8.71402e-06
8.72576e-06
8.73748e-06
8.74658e-06
8.74954e-06
8.7428e-06
8.72272e-06
8.7031e-06
8.75255e-06
8.67503e-06
8.67502e-06
8.67502e-06
8.67502e-06
8.67502e-06
8.67502e-06
8.67502e-06
8.67503e-06
8.67504e-06
8.67504e-06
8.67505e-06
8.67506e-06
8.67507e-06
8.67509e-06
8.6751e-06
8.67511e-06
8.67513e-06
8.67514e-06
8.67519e-06
8.67526e-06
8.67534e-06
8.67545e-06
8.67558e-06
8.67575e-06
8.67597e-06
8.67629e-06
8.67663e-06
8.67698e-06
8.67729e-06
8.67766e-06
8.67825e-06
8.67892e-06
8.67964e-06
8.68073e-06
8.68179e-06
8.68304e-06
8.68863e-06
8.69662e-06
8.70532e-06
8.71611e-06
8.7284e-06
8.74044e-06
8.74958e-06
8.75225e-06
8.74501e-06
8.72432e-06
8.70312e-06
8.74588e-06
8.67503e-06
8.67502e-06
8.67502e-06
8.67502e-06
8.67502e-06
8.67502e-06
8.67502e-06
8.67503e-06
8.67504e-06
8.67504e-06
8.67505e-06
8.67506e-06
8.67507e-06
8.67509e-06
8.6751e-06
8.67511e-06
8.67513e-06
8.67514e-06
8.67518e-06
8.67525e-06
8.67532e-06
8.67541e-06
8.67553e-06
8.67568e-06
8.67589e-06
8.67619e-06
8.67647e-06
8.67673e-06
8.67698e-06
8.67732e-06
8.67796e-06
8.67866e-06
8.67943e-06
8.68072e-06
8.68199e-06
8.68331e-06
8.68892e-06
8.6973e-06
8.7065e-06
8.71784e-06
8.73061e-06
8.7429e-06
8.75199e-06
8.75438e-06
8.74669e-06
8.7256e-06
8.70326e-06
8.73925e-06
8.67503e-06
8.67502e-06
8.67502e-06
8.67502e-06
8.67502e-06
8.67502e-06
8.67503e-06
8.67503e-06
8.67504e-06
8.67504e-06
8.67505e-06
8.67506e-06
8.67507e-06
8.67509e-06
8.6751e-06
8.67511e-06
8.67513e-06
8.67514e-06
8.67518e-06
8.67523e-06
8.6753e-06
8.67538e-06
8.67549e-06
8.67562e-06
8.67584e-06
8.67612e-06
8.67634e-06
8.67652e-06
8.67671e-06
8.6771e-06
8.67781e-06
8.67856e-06
8.67943e-06
8.68098e-06
8.68253e-06
8.68385e-06
8.68931e-06
8.69773e-06
8.70731e-06
8.71912e-06
8.7323e-06
8.74476e-06
8.75377e-06
8.75587e-06
8.74781e-06
8.72655e-06
8.70354e-06
8.73299e-06
8.67503e-06
8.67502e-06
8.67502e-06
8.67502e-06
8.67502e-06
8.67502e-06
8.67503e-06
8.67503e-06
8.67504e-06
8.67504e-06
8.67505e-06
8.67507e-06
8.67507e-06
8.67509e-06
8.6751e-06
8.67511e-06
8.67513e-06
8.67514e-06
8.67517e-06
8.67522e-06
8.67528e-06
8.67535e-06
8.67546e-06
8.67558e-06
8.67581e-06
8.67607e-06
8.67623e-06
8.67634e-06
8.67649e-06
8.67701e-06
8.67779e-06
8.67864e-06
8.67968e-06
8.68156e-06
8.68344e-06
8.68471e-06
8.68993e-06
8.69789e-06
8.70767e-06
8.71985e-06
8.73337e-06
8.74597e-06
8.75485e-06
8.75668e-06
8.74835e-06
8.72713e-06
8.70402e-06
8.72743e-06
8.67503e-06
8.67502e-06
8.67502e-06
8.67502e-06
8.67502e-06
8.67502e-06
8.67503e-06
8.67503e-06
8.67504e-06
8.67504e-06
8.67505e-06
8.67507e-06
8.67507e-06
8.67509e-06
8.6751e-06
8.67511e-06
8.67513e-06
8.67514e-06
8.67517e-06
8.67521e-06
8.67526e-06
8.67533e-06
8.67543e-06
8.67555e-06
8.6758e-06
8.67605e-06
8.67614e-06
8.67619e-06
8.67634e-06
8.67703e-06
8.67791e-06
8.67892e-06
8.68018e-06
8.68244e-06
8.68471e-06
8.6859e-06
8.69062e-06
8.69782e-06
8.70754e-06
8.71997e-06
8.73378e-06
8.74646e-06
8.7552e-06
8.75677e-06
8.74826e-06
8.72732e-06
8.70518e-06
8.72286e-06
8.67503e-06
8.67502e-06
8.67502e-06
8.67502e-06
8.67502e-06
8.67502e-06
8.67503e-06
8.67503e-06
8.67504e-06
8.67505e-06
8.67506e-06
8.67507e-06
8.67507e-06
8.67509e-06
8.6751e-06
8.67511e-06
8.67513e-06
8.67514e-06
8.67516e-06
8.6752e-06
8.67525e-06
8.67531e-06
8.67541e-06
8.67553e-06
8.67581e-06
8.67603e-06
8.67606e-06
8.67606e-06
8.67629e-06
8.67714e-06
8.67818e-06
8.67939e-06
8.68093e-06
8.68361e-06
8.68631e-06
8.68743e-06
8.69148e-06
8.6977e-06
8.70693e-06
8.71945e-06
8.73348e-06
8.7462e-06
8.75476e-06
8.7561e-06
8.74753e-06
8.72708e-06
8.70628e-06
8.71952e-06
8.67503e-06
8.67502e-06
8.67502e-06
8.67502e-06
8.67502e-06
8.67502e-06
8.67503e-06
8.67503e-06
8.67504e-06
8.67505e-06
8.67506e-06
8.67507e-06
8.67508e-06
8.67509e-06
8.6751e-06
8.67511e-06
8.67513e-06
8.67514e-06
8.67516e-06
8.67519e-06
8.67524e-06
8.6753e-06
8.6754e-06
8.67553e-06
8.67583e-06
8.67603e-06
8.676e-06
8.67597e-06
8.67635e-06
8.67735e-06
8.67857e-06
8.68005e-06
8.68193e-06
8.68501e-06
8.68817e-06
8.68928e-06
8.69258e-06
8.69788e-06
8.70594e-06
8.71828e-06
8.73244e-06
8.74515e-06
8.75352e-06
8.75466e-06
8.74614e-06
8.7264e-06
8.70741e-06
8.71752e-06
8.67503e-06
8.67502e-06
8.67503e-06
8.67502e-06
8.67502e-06
8.67503e-06
8.67503e-06
8.67503e-06
8.67504e-06
8.67505e-06
8.67506e-06
8.67507e-06
8.67508e-06
8.67509e-06
8.6751e-06
8.67511e-06
8.67513e-06
8.67514e-06
8.67515e-06
8.67519e-06
8.67523e-06
8.67529e-06
8.67539e-06
8.67554e-06
8.67586e-06
8.67603e-06
8.67595e-06
8.6759e-06
8.67647e-06
8.67764e-06
8.67908e-06
8.68086e-06
8.68312e-06
8.6866e-06
8.69023e-06
8.69144e-06
8.69395e-06
8.69818e-06
8.70483e-06
8.71652e-06
8.73065e-06
8.74331e-06
8.75146e-06
8.75244e-06
8.74409e-06
8.72526e-06
8.70864e-06
8.71689e-06
8.67503e-06
8.67502e-06
8.67503e-06
8.67502e-06
8.67502e-06
8.67503e-06
8.67503e-06
8.67503e-06
8.67504e-06
8.67505e-06
8.67506e-06
8.67507e-06
8.67508e-06
8.67509e-06
8.6751e-06
8.67511e-06
8.67513e-06
8.67513e-06
8.67515e-06
8.67519e-06
8.67523e-06
8.67529e-06
8.6754e-06
8.67557e-06
8.6759e-06
8.67604e-06
8.6759e-06
8.67586e-06
8.67663e-06
8.67798e-06
8.67968e-06
8.68179e-06
8.68445e-06
8.68833e-06
8.69244e-06
8.69388e-06
8.69572e-06
8.69883e-06
8.70404e-06
8.71428e-06
8.72813e-06
8.74066e-06
8.74859e-06
8.74944e-06
8.74137e-06
8.72367e-06
8.71026e-06
8.71749e-06
8.67503e-06
8.67502e-06
8.67503e-06
8.67502e-06
8.67502e-06
8.67503e-06
8.67503e-06
8.67503e-06
8.67504e-06
8.67505e-06
8.67506e-06
8.67507e-06
8.67508e-06
8.67509e-06
8.6751e-06
8.67511e-06
8.67513e-06
8.67513e-06
8.67515e-06
8.67519e-06
8.67523e-06
8.6753e-06
8.67542e-06
8.67561e-06
8.67594e-06
8.67604e-06
8.67585e-06
8.67587e-06
8.67683e-06
8.67838e-06
8.68034e-06
8.6828e-06
8.6859e-06
8.69015e-06
8.69475e-06
8.69655e-06
8.69795e-06
8.70002e-06
8.70366e-06
8.71181e-06
8.72496e-06
8.73724e-06
8.74492e-06
8.74568e-06
8.73802e-06
8.72165e-06
8.71203e-06
8.71907e-06
8.67503e-06
8.67502e-06
8.67503e-06
8.67503e-06
8.67503e-06
8.67503e-06
8.67503e-06
8.67504e-06
8.67504e-06
8.67505e-06
8.67506e-06
8.67507e-06
8.67508e-06
8.67509e-06
8.6751e-06
8.67511e-06
8.67513e-06
8.67513e-06
8.67515e-06
8.67519e-06
8.67524e-06
8.67531e-06
8.67545e-06
8.67565e-06
8.67598e-06
8.67604e-06
8.67581e-06
8.67593e-06
8.67706e-06
8.67881e-06
8.68105e-06
8.68386e-06
8.6874e-06
8.69206e-06
8.69715e-06
8.69941e-06
8.70061e-06
8.70175e-06
8.70379e-06
8.70959e-06
8.72126e-06
8.73311e-06
8.74051e-06
8.74123e-06
8.73407e-06
8.71929e-06
8.71386e-06
8.72132e-06
8.67503e-06
8.67503e-06
8.67503e-06
8.67503e-06
8.67503e-06
8.67503e-06
8.67503e-06
8.67504e-06
8.67505e-06
8.67505e-06
8.67506e-06
8.67507e-06
8.67508e-06
8.67509e-06
8.6751e-06
8.67511e-06
8.67513e-06
8.67514e-06
8.67516e-06
8.6752e-06
8.67525e-06
8.67533e-06
8.67549e-06
8.6757e-06
8.67601e-06
8.67604e-06
8.67576e-06
8.67601e-06
8.6773e-06
8.67926e-06
8.68178e-06
8.68496e-06
8.68895e-06
8.69402e-06
8.69962e-06
8.70242e-06
8.70367e-06
8.70412e-06
8.70474e-06
8.70824e-06
8.71732e-06
8.7284e-06
8.73546e-06
8.73616e-06
8.72964e-06
8.71676e-06
8.71575e-06
8.72384e-06
8.67504e-06
8.67503e-06
8.67503e-06
8.67503e-06
8.67503e-06
8.67503e-06
8.67503e-06
8.67504e-06
8.67505e-06
8.67505e-06
8.67506e-06
8.67507e-06
8.67508e-06
8.67509e-06
8.6751e-06
8.67511e-06
8.67513e-06
8.67514e-06
8.67516e-06
8.67521e-06
8.67526e-06
8.67536e-06
8.67553e-06
8.67574e-06
8.67604e-06
8.67603e-06
8.67571e-06
8.67611e-06
8.67755e-06
8.67972e-06
8.68253e-06
8.68608e-06
8.69051e-06
8.69604e-06
8.70216e-06
8.70556e-06
8.70706e-06
8.70712e-06
8.70643e-06
8.70751e-06
8.7136e-06
8.72333e-06
8.72993e-06
8.73063e-06
8.72489e-06
8.71443e-06
8.71767e-06
8.72626e-06
8.67504e-06
8.67503e-06
8.67503e-06
8.67503e-06
8.67503e-06
8.67503e-06
8.67503e-06
8.67504e-06
8.67505e-06
8.67505e-06
8.67506e-06
8.67507e-06
8.67508e-06
8.67509e-06
8.6751e-06
8.67511e-06
8.67513e-06
8.67514e-06
8.67517e-06
8.67521e-06
8.67528e-06
8.67539e-06
8.67557e-06
8.67578e-06
8.67606e-06
8.67601e-06
8.67567e-06
8.67622e-06
8.6778e-06
8.68019e-06
8.68329e-06
8.68722e-06
8.69208e-06
8.6981e-06
8.70474e-06
8.70882e-06
8.71073e-06
8.71064e-06
8.70896e-06
8.70779e-06
8.71093e-06
8.71826e-06
8.72415e-06
8.72486e-06
8.72007e-06
8.71342e-06
8.7195e-06
8.72829e-06
8.67503e-06
8.67503e-06
8.67503e-06
8.67503e-06
8.67503e-06
8.67503e-06
8.67504e-06
8.67504e-06
8.67505e-06
8.67505e-06
8.67506e-06
8.67507e-06
8.67508e-06
8.67509e-06
8.6751e-06
8.67511e-06
8.67513e-06
8.67514e-06
8.67517e-06
8.67523e-06
8.6753e-06
8.67542e-06
8.6756e-06
8.67581e-06
8.67607e-06
8.67599e-06
8.67564e-06
8.67633e-06
8.67805e-06
8.68065e-06
8.68406e-06
8.68836e-06
8.69365e-06
8.70015e-06
8.70734e-06
8.71215e-06
8.71463e-06
8.71462e-06
8.71225e-06
8.70916e-06
8.70926e-06
8.71378e-06
8.71852e-06
8.71921e-06
8.71555e-06
8.71277e-06
8.72129e-06
8.72977e-06
8.67503e-06
8.67503e-06
8.67503e-06
8.67503e-06
8.67503e-06
8.67503e-06
8.67504e-06
8.67504e-06
8.67505e-06
8.67506e-06
8.67507e-06
8.67507e-06
8.67508e-06
8.67509e-06
8.6751e-06
8.67511e-06
8.67513e-06
8.67515e-06
8.67518e-06
8.67524e-06
8.67532e-06
8.67545e-06
8.67564e-06
8.67584e-06
8.67608e-06
8.67596e-06
8.67561e-06
8.67645e-06
8.6783e-06
8.68111e-06
8.68482e-06
8.6895e-06
8.6952e-06
8.70218e-06
8.70994e-06
8.71554e-06
8.71872e-06
8.71899e-06
8.71619e-06
8.71156e-06
8.70884e-06
8.71096e-06
8.71368e-06
8.71427e-06
8.71203e-06
8.71305e-06
8.72312e-06
8.73069e-06
8.67503e-06
8.67503e-06
8.67503e-06
8.67503e-06
8.67503e-06
8.67503e-06
8.67504e-06
8.67504e-06
8.67505e-06
8.67506e-06
8.67507e-06
8.67508e-06
8.67508e-06
8.67509e-06
8.6751e-06
8.67511e-06
8.67513e-06
8.67515e-06
8.67519e-06
8.67525e-06
8.67534e-06
8.67548e-06
8.67567e-06
8.67587e-06
8.67608e-06
8.67593e-06
8.67561e-06
8.67656e-06
8.67855e-06
8.68157e-06
8.68556e-06
8.69062e-06
8.69673e-06
8.70415e-06
8.71248e-06
8.71894e-06
8.72295e-06
8.72371e-06
8.72068e-06
8.7149e-06
8.70993e-06
8.70935e-06
8.71084e-06
8.71101e-06
8.70992e-06
8.71429e-06
8.72512e-06
8.73117e-06
8.67503e-06
8.67503e-06
8.67504e-06
8.67503e-06
8.67503e-06
8.67503e-06
8.67504e-06
8.67504e-06
8.67505e-06
8.67506e-06
8.67507e-06
8.67508e-06
8.67508e-06
8.67509e-06
8.6751e-06
8.67511e-06
8.67514e-06
8.67516e-06
8.6752e-06
8.67527e-06
8.67536e-06
8.6755e-06
8.67569e-06
8.67589e-06
8.67607e-06
8.6759e-06
8.67562e-06
8.67668e-06
8.6788e-06
8.682e-06
8.68628e-06
8.69171e-06
8.69821e-06
8.70603e-06
8.71494e-06
8.7223e-06
8.72726e-06
8.72873e-06
8.72568e-06
8.71904e-06
8.71231e-06
8.7094e-06