/*--------------------------------*- C++ -*----------------------------------*\
| =========                 |                                                 |
| \\      /  F ield         | OpenFOAM: The Open Source CFD Toolbox           |
|  \\    /   O peration     | Version:  2406                                  |
|   \\  /    A nd           | Website:  www.openfoam.com                      |
|    \\/     M anipulation  |                                                 |
\*---------------------------------------------------------------------------*/
FoamFile
{
    version     2.0;
    format      ascii;
    arch        "LSB;label=32;scalar=64";
    class       volScalarField;
    location    "10";
    object      p;
}
// * * * * * * * * * * * * * * * * * * * * * * * * * * * * * * * * * * * * * //

dimensions      [0 2 -2 0 0 0 0];

internalField   nonuniform List<scalar> 
38016
(
0.720118
-1.73755
-4.39312
-6.89714
-9.67671
-12.2403
-15.6239
-18.8423
-23.0562
-27.0788
-31.2595
-36.2133
-39.6846
-45.0075
-48.4558
-52.2068
-57.4928
-61.8953
-69.189
-78.183
-90.5803
-105.501
-124.928
-145.651
-163.395
-173.595
-168.836
-148.89
-117.497
-82.3033
-32.6845
20.7307
79.512
141.868
212.083
281.42
342.286
412.378
467.205
520.956
577.218
632.76
674.434
710.315
744.344
781.253
823.484
864.867
0.807222
-1.70105
-4.27801
-6.88384
-9.58754
-12.239
-15.5489
-18.8189
-22.9938
-26.9661
-31.0824
-36.0149
-39.4059
-44.7302
-48.1553
-51.9806
-57.3129
-61.8724
-69.173
-78.0248
-90.3707
-105.657
-125.548
-146.953
-165.358
-174.778
-169.212
-151.007
-120.069
-84.2118
-35.8855
17.9347
77.2686
139.471
209.156
285.713
345.574
401.625
469.809
530.61
581.605
629.911
675.197
712.368
748.479
787.837
831.264
873.611
0.849624
-1.65519
-4.21647
-6.8329
-9.52361
-12.1699
-15.461
-18.7384
-22.8997
-26.872
-30.9844
-35.9119
-39.285
-44.602
-48.0304
-51.8527
-57.2204
-61.8447
-69.2537
-78.273
-90.7927
-106.301
-126.436
-148.123
-166.89
-176.651
-171.322
-153.166
-122.428
-86.5934
-38.2159
15.9736
75.1106
138.227
207.36
282.738
344.405
401.586
468.433
527.888
580.729
628.307
673.377
713.01
751.324
792.529
836.198
878.584
0.899371
-1.61151
-4.16212
-6.78864
-9.45513
-12.1059
-15.3791
-18.6564
-22.7982
-26.7757
-30.875
-35.7943
-39.1524
-44.4581
-47.8916
-51.7138
-57.1227
-61.8174
-69.3419
-78.537
-91.2294
-106.969
-127.335
-149.316
-168.465
-178.572
-173.507
-155.595
-125.154
-89.1111
-40.9044
13.4722
72.6192
136.514
205.127
279.022
341.965
399.861
465.665
524.423
577.952
625.544
670.522
711.393
751.737
794.612
838.085
879.764
0.948326
-1.56775
-4.10766
-6.74386
-9.38727
-12.0414
-15.2971
-18.5742
-22.6966
-26.6793
-30.7652
-35.6763
-39.0192
-44.3126
-47.7518
-51.572
-57.0222
-61.7859
-69.4253
-78.7956
-91.6607
-107.633
-128.235
-150.516
-170.064
-180.54
-175.779
-158.157
-128.058
-91.9082
-43.9477
10.5332
69.5844
133.985
202.058
274.435
338.369
396.906
461.354
519.808
573.562
621.392
666.458
708.225
749.86
793.396
836.147
876.551
0.997226
-1.524
-4.05329
-6.69891
-9.3195
-11.9768
-15.2151
-18.492
-22.5948
-26.5829
-30.6549
-35.5579
-38.8856
-44.1658
-47.6113
-51.428
-56.9204
-61.7519
-69.506
-79.0515
-92.0884
-108.297
-129.134
-151.724
-171.687
-182.557
-178.137
-160.857
-131.151
-94.9836
-47.3515
7.12728
66.0172
130.685
198.204
269.043
333.578
392.693
455.863
514.051
567.629
615.812
661.076
703.348
745.517
788.86
830.396
869.013
1.04602
-1.48026
-3.99902
-6.6538
-9.25188
-11.9121
-15.133
-18.4097
-22.4928
-26.4866
-30.5442
-35.4394
-38.7516
-44.018
-47.4707
-51.2822
-56.8177
-61.716
-69.5846
-79.305
-92.5131
-108.959
-130.032
-152.936
-173.331
-184.622
-180.583
-163.7
-134.441
-98.3491
-51.1254
3.2461
61.9094
126.613
193.539
262.865
327.646
387.267
449.347
507.125
560.281
608.737
654.146
696.506
738.535
780.965
820.815
857.263
1.09473
-1.43652
-3.94486
-6.60852
-9.1844
-11.8471
-15.051
-18.3275
-22.3907
-26.3905
-30.4331
-35.3209
-38.6177
-43.8695
-47.3303
-51.1353
-56.7146
-61.6789
-69.6616
-79.5566
-92.9347
-109.619
-130.928
-154.151
-174.992
-186.731
-183.115
-166.687
-137.931
-102.009
-55.271
-1.11135
57.26
121.78
188.055
255.928
320.662
380.698
441.847
499.013
551.629
600.154
645.456
687.459
728.815
769.814
807.609
841.648
1.14333
-1.39279
-3.89079
-6.56308
-9.11706
-11.7821
-14.9691
-18.2452
-22.2885
-26.2946
-30.3219
-35.2025
-38.4839
-43.7206
-47.1904
-50.9877
-56.6118
-61.6411
-69.7377
-79.8068
-93.3534
-110.278
-131.82
-155.365
-176.668
-188.88
-185.731
-169.816
-141.621
-105.964
-59.7847
-5.93924
52.0722
116.203
181.761
248.281
312.75
373.062
433.341
489.72
541.752
590.045
634.847
676.055
716.327
755.59
791.145
822.728
1.19185
-1.34908
-3.83683
-6.51748
-9.04987
-11.7169
-14.8872
-18.1629
-22.1863
-26.1991
-30.2106
-35.0845
-38.3507
-43.5717
-47.0517
-50.8401
-56.51
-61.6036
-69.8135
-80.0561
-93.7695
-110.933
-132.708
-156.577
-178.353
-191.063
-188.425
-173.083
-145.508
-110.21
-64.6586
-11.2275
46.3517
109.907
174.687
239.982
304.035
364.424
423.789
479.273
530.667
578.37
622.244
662.281
701.153
738.506
771.79
800.977
1.24027
-1.30537
-3.78297
-6.47172
-8.98283
-11.6517
-14.8054
-18.0808
-22.0842
-26.104
-30.0995
-34.9671
-38.2184
-43.4234
-46.9148
-50.6932
-56.41
-61.5671
-69.89
-80.3051
-94.1832
-111.585
-133.587
-157.782
-180.042
-193.276
-191.195
-176.486
-149.588
-114.742
-69.8823
-16.9635
40.105
102.924
166.88
231.102
294.622
354.827
413.182
467.704
518.326
565.06
607.643
646.234
683.486
718.845
749.922
776.862
1.2886
-1.26169
-3.72922
-6.42581
-8.91595
-11.5863
-14.7237
-17.9987
-21.9822
-26.0096
-29.9888
-34.8506
-38.0875
-43.2761
-46.7802
-50.5478
-56.3129
-61.5329
-69.9682
-80.5548
-94.5947
-112.232
-134.458
-158.977
-181.728
-195.51
-194.032
-180.016
-153.855
-119.551
-75.4433
-23.1337
33.3408
95.2942
158.408
221.701
284.572
344.292
401.537
455.03
504.64
550.042
591.075
628.048
663.542
696.876
725.846
750.742
1.33683
-1.21802
-3.67557
-6.37976
-8.84923
-11.5209
-14.6422
-17.9169
-21.8804
-25.9158
-29.8786
-34.7352
-37.9583
-43.1304
-46.6489
-50.405
-56.2197
-61.5022
-70.0494
-80.8059
-95.0043
-112.874
-135.317
-160.157
-183.406
-197.759
-196.931
-183.668
-158.301
-124.628
-81.3281
-29.7242
26.0697
87.065
149.343
211.812
273.893
332.835
388.889
441.241
489.541
533.311
572.628
607.893
641.576
672.921
699.907
722.933
1.38498
-1.17437
-3.62203
-6.33357
-8.78269
-11.4554
-14.5609
-17.8353
-21.779
-25.823
-29.7692
-34.6215
-37.8315
-42.9872
-46.5218
-50.2659
-56.1318
-61.4764
-70.1348
-81.0595
-95.4125
-113.51
-136.162
-161.316
-185.067
-200.013
-199.882
-187.432
-162.916
-129.957
-87.5231
-36.7225
18.3057
78.29
139.751
201.439
262.558
320.472
375.266
426.313
473.016
514.959
552.483
586.016
617.908
647.373
672.552
693.919
1.43303
-1.13074
-3.5686
-6.28724
-8.71633
-11.3899
-14.4797
-17.7539
-21.678
-25.7312
-29.661
-34.5096
-37.7077
-42.8473
-46.3998
-50.1317
-56.0507
-61.4572
-70.226
-81.3168
-95.8195
-114.138
-136.99
-162.451
-186.704
-202.263
-202.878
-191.298
-167.689
-135.527
-94.0164
-44.117
10.0665
69.022
129.679
190.548
250.52
307.224
360.684
410.222
455.106
495.145
530.875
562.685
592.829
620.522
644.063
663.98
1.481
-1.08714
-3.51528
-6.24078
-8.65016
-11.3244
-14.3988
-17.673
-21.5776
-25.6406
-29.5542
-34.4002
-37.5874
-42.7115
-46.2842
-50.0039
-55.9781
-61.4462
-70.3247
-81.579
-96.2258
-114.758
-137.798
-163.555
-188.306
-204.499
-205.906
-195.254
-172.608
-141.323
-100.798
-51.8973
1.37299
59.306
119.143
179.083
237.737
293.114
345.138
392.964
435.896
474.043
508.035
538.183
566.661
592.709
614.758
633.369
1.52888
-1.04357
-3.46208
-6.19421
-8.58419
-11.2588
-14.3182
-17.5925
-21.4779
-25.5515
-29.4491
-34.2937
-37.4715
-42.5808
-46.1761
-49.884
-55.9159
-61.4456
-70.4329
-81.8475
-96.6319
-115.368
-138.582
-164.622
-189.867
-206.711
-208.958
-199.288
-177.661
-147.332
-107.862
-60.0534
-7.75213
49.1714
108.127
166.975
224.184
278.15
328.608
374.563
415.509
451.826
484.151
512.719
539.642
564.19
584.902
602.356
1.57666
-1.00004
-3.409
-6.14752
-8.51845
-11.1934
-14.238
-17.5126
-21.3791
-25.4641
-29.3462
-34.1907
-37.3608
-42.4564
-46.077
-49.774
-55.8661
-61.4575
-70.5526
-82.124
-97.0384
-115.968
-139.341
-165.648
-191.375
-208.89
-212.022
-203.388
-182.837
-153.545
-115.205
-68.5749
-17.2872
38.6262
96.5848
154.168
209.85
262.326
311.073
355.076
394.1
428.687
459.419
486.484
511.954
535.131
554.645
571.082
1.62436
-0.956537
-3.35604
-6.10072
-8.45294
-11.128
-14.1582
-17.4333
-21.2813
-25.3787
-29.2458
-34.0917
-37.2561
-42.3396
-45.9884
-49.6756
-55.8311
-61.4843
-70.6863
-82.41
-97.4458
-116.555
-140.071
-166.626
-192.823
-211.023
-215.087
-207.543
-188.125
-159.955
-122.825
-77.4509
-27.2155
27.6554
84.4602
140.623
194.735
245.635
292.547
334.599
371.824
404.811
434.054
459.723
483.865
505.805
524.251
539.787
1.67197
-0.913081
-3.30322
-6.05383
-8.38769
-11.0627
-14.0788
-17.3547
-21.1847
-25.2954
-29.1484
-33.9973
-37.1584
-42.2315
-45.9119
-49.5912
-55.8134
-61.5288
-70.8365
-82.7076
-97.8549
-117.13
-140.769
-167.55
-194.201
-213.103
-218.142
-211.741
-193.521
-166.56
-130.725
-86.6707
-37.529
16.2239
71.6981
126.325
178.842
228.082
273.103
313.273
348.824
380.315
408.159
432.54
455.471
476.297
493.788
508.523
1.71949
-0.869671
-3.25053
-6.00685
-8.3227
-10.9976
-14
-17.277
-21.0894
-25.2147
-29.0545
-33.9084
-37.0688
-42.1337
-45.8494
-49.523
-55.8157
-61.5938
-71.0061
-83.0188
-98.2668
-117.69
-141.432
-168.418
-195.502
-215.119
-221.178
-215.975
-199.02
-173.362
-138.905
-96.226
-48.2328
4.28313
58.2577
111.278
162.174
209.684
252.829
291.238
325.234
355.304
381.819
404.999
426.816
446.627
463.254
477.264
1.76692
-0.826311
-3.19798
-5.95979
-8.25801
-10.9326
-13.9217
-17.2002
-20.9958
-25.1368
-28.9645
-33.8255
-36.9884
-42.0478
-45.8027
-49.4736
-55.841
-61.6824
-71.1982
-83.3461
-98.6828
-118.237
-142.06
-169.224
-196.719
-217.065
-224.185
-220.238
-204.625
-180.37
-147.371
-106.114
-59.3476
-8.22146
44.1134
95.4883
144.726
190.456
231.777
268.541
301.079
329.796
355.052
377.116
397.911
416.795
432.637
445.991
1.81426
-0.783008
-3.14557
-5.91266
-8.19364
-10.8679
-13.8442
-17.1246
-20.904
-25.0621
-28.879
-33.7495
-36.9182
-41.9753
-45.774
-49.4457
-55.8923
-61.7979
-71.416
-83.692
-99.1045
-118.77
-142.652
-169.966
-197.848
-218.934
-227.157
-224.529
-210.343
-187.593
-156.127
-116.342
-70.9111
-21.3444
29.2467
78.9485
126.478
170.397
209.953
245.152
276.287
303.7
327.757
348.778
368.624
386.649
401.766
414.516
1.86151
-0.739767
-3.09333
-5.86548
-8.1296
-10.8034
-13.7674
-17.0502
-20.8143
-24.9908
-28.7984
-33.6812
-36.8596
-41.9179
-45.7653
-49.4421
-55.9731
-61.9439
-71.6632
-84.0594
-99.5342
-119.29
-143.208
-170.645
-198.886
-220.722
-230.09
-228.849
-216.187
-195.044
-165.181
-126.932
-82.9764
-35.1376
13.6341
61.6193
107.372
149.468
187.322
221.011
250.78
276.936
299.864
319.924
338.897
356.134
370.583
382.774
1.90868
-0.696592
-3.04124
-5.81826
-8.06592
-10.7393
-13.6915
-16.9771
-20.7267
-24.9233
-28.7235
-33.6214
-36.8138
-41.8775
-45.7788
-49.4659
-56.0868
-62.1241
-71.9435
-84.4514
-99.9742
-119.8
-143.73
-171.26
-199.834
-222.429
-232.982
-233.204
-222.17
-202.738
-174.548
-137.92
-95.6081
-49.6515
-2.76246
43.434
87.3268
127.587
163.782
196
224.434
249.381
271.25
290.427
308.607
325.128
338.973
350.659
1.95576
-0.653492
-2.98933
-5.77101
-8.00264
-10.6756
-13.6164
-16.9055
-20.6417
-24.8599
-28.6546
-33.5709
-36.7821
-41.8558
-45.817
-49.5202
-56.2369
-62.3423
-72.2608
-84.8716
-100.428
-120.303
-144.223
-171.818
-200.695
-224.057
-235.836
-237.601
-228.309
-210.69
-184.248
-149.358
-108.876
-64.9364
-19.9984
24.3096
66.2547
104.655
139.204
169.967
197.092
220.88
241.749
260.106
277.55
293.408
306.694
317.913
2.00276
-0.610472
-2.93759
-5.72375
-7.93977
-10.6122
-13.5424
-16.8355
-20.5594
-24.8011
-28.5925
-33.5307
-36.7658
-41.8548
-45.882
-49.6082
-56.4272
-62.6026
-72.6193
-85.3238
-100.899
-120.803
-144.691
-172.323
-201.476
-225.615
-238.658
-242.053
-234.62
-218.915
-194.31
-161.308
-122.85
-81.0428
-38.142
4.15502
44.0677
80.5803
113.471
142.772
168.611
191.288
211.222
228.824
245.591
260.835
273.599
284.38
2.04967
-0.567539
-2.88605
-5.67649
-7.87734
-10.5494
-13.4695
-16.7673
-20.4801
-24.747
-28.5376
-33.5014
-36.7662
-41.8764
-45.9764
-49.7333
-56.6614
-62.9092
-73.0235
-85.8122
-101.392
-121.307
-145.144
-172.786
-202.189
-227.113
-241.46
-246.571
-241.116
-227.426
-204.77
-173.835
-137.587
-98.0186
-57.2644
-17.1168
20.6766
55.2625
86.4681
114.289
138.843
160.434
179.471
196.356
212.482
227.142
239.406
249.768
2.09649
-0.524701
-2.8347
-5.62924
-7.81539
-10.487
-13.3977
-16.701
-20.4039
-24.6981
-28.4905
-33.4841
-36.7846
-41.9223
-46.1023
-49.8987
-56.9432
-63.2661
-73.4781
-86.3416
-101.914
-121.822
-145.591
-173.221
-202.849
-228.568
-244.261
-251.171
-247.806
-236.233
-215.665
-186.994
-153.131
-115.907
-77.429
-39.5714
-3.98392
28.6246
58.1096
84.4316
107.701
128.22
146.375
162.558
178.053
192.133
203.892
213.826
2.14323
-0.481966
-2.78356
-5.58202
-7.75394
-10.4253
-13.3273
-16.6367
-20.3312
-24.6546
-28.4517
-33.4794
-36.8223
-41.9943
-46.2622
-50.1078
-57.2764
-63.6779
-73.9877
-86.9174
-102.47
-122.357
-146.046
-173.643
-203.477
-229.999
-247.085
-255.868
-254.695
-245.344
-227.03
-200.829
-169.508
-134.743
-98.6854
-63.2463
-29.9386
0.640722
28.3627
53.1636
75.1458
94.5984
111.879
127.362
142.223
155.711
166.945
176.428
2.18989
-0.439343
-2.73265
-5.53486
-7.69303
-10.3642
-13.2581
-16.5746
-20.2621
-24.6168
-28.4218
-33.4881
-36.8804
-42.0943
-46.4583
-50.3638
-57.6645
-64.1488
-74.5575
-87.5455
-103.07
-122.925
-146.523
-174.073
-204.096
-231.43
-249.956
-260.682
-261.782
-254.762
-238.886
-215.357
-186.724
-154.548
-121.058
-88.1467
-57.1737
-28.6634
-2.74311
20.5081
41.1869
59.5649
75.9653
90.7386
104.95
117.827
128.515
137.534
2.23647
-0.396841
-2.68196
-5.48776
-7.63268
-10.3037
-13.1904
-16.5148
-20.1967
-24.585
-28.4011
-33.5109
-36.9601
-42.2237
-46.6926
-50.6698
-58.111
-64.6831
-75.1926
-88.2324
-103.724
-123.539
-147.041
-174.532
-204.733
-232.89
-252.902
-265.634
-269.071
-264.489
-251.241
-230.572
-204.764
-175.317
-144.53
-114.231
-85.6312
-59.2159
-35.1195
-13.4332
5.92882
23.2159
38.7158
52.7544
66.2912
78.5319
88.6519
97.1874
2.28296
-0.354469
-2.63152
-5.44074
-7.57293
-10.244
-13.1242
-16.4573
-20.1354
-24.5594
-28.39
-33.5484
-37.0622
-42.3841
-46.9671
-51.0287
-58.6191
-65.2852
-75.8983
-88.9854
-104.441
-124.216
-147.621
-175.048
-205.419
-234.41
-255.948
-270.743
-276.569
-274.524
-264.084
-246.443
-223.593
-197.013
-169.042
-141.406
-115.198
-90.8929
-68.6312
-48.5096
-30.4586
-14.2597
0.335875
13.6274
26.4734
38.061
47.5973
55.6361
2.32938
-0.312237
-2.58134
-5.39383
-7.51379
-10.1851
-13.0596
-16.4022
-20.0781
-24.54
-28.3888
-33.601
-37.1877
-42.5766
-47.2834
-51.443
-59.1917
-65.9592
-76.6801
-89.8123
-105.235
-124.971
-148.284
-175.648
-206.186
-236.022
-259.124
-276.019
-284.289
-284.873
-277.393
-262.915
-243.151
-219.566
-194.49
-169.534
-145.711
-123.506
-103.072
-84.5074
-67.7611
-52.6494
-38.9631
-26.4298
-14.2864
-3.36305
5.5796
13.1146
2.37572
-0.270156
-2.53143
-5.34703
-7.45531
-10.127
-12.9966
-16.3497
-20.025
-24.5271
-28.3978
-33.669
-37.3371
-42.8022
-47.6429
-51.9152
-59.8314
-66.7091
-77.5435
-90.7216
-106.118
-125.824
-149.056
-176.361
-207.067
-237.757
-262.455
-281.47
-292.237
-295.548
-291.14
-279.926
-263.355
-242.868
-220.732
-198.447
-176.974
-156.829
-138.181
-121.133
-105.658
-91.6092
-78.818
-67.0387
-55.5977
-45.3419
-36.9992
-29.9758
2.42198
-0.228237
-2.48181
-5.30038
-7.39751
-10.0698
-12.9352
-16.2998
-19.9762
-24.5206
-28.4171
-33.7528
-37.5108
-43.0616
-48.0467
-52.447
-60.5403
-67.5385
-78.4937
-91.7221
-107.106
-126.795
-149.96
-177.217
-208.094
-239.642
-265.963
-287.105
-300.408
-306.557
-305.302
-297.409
-284.107
-266.782
-247.595
-227.94
-208.76
-190.61
-173.685
-158.099
-143.846
-130.824
-118.902
-107.86
-97.1093
-87.5125
-79.7649
-73.2535
2.46817
-0.186493
-2.43249
-5.25388
-7.34042
-10.0135
-12.8756
-16.2525
-19.9318
-24.5205
-28.4467
-33.8523
-37.7091
-43.3551
-48.4955
-53.0397
-61.3201
-68.4508
-79.536
-92.8231
-108.212
-127.903
-151.02
-178.246
-209.299
-241.704
-269.658
-292.933
-308.791
-317.882
-319.85
-315.296
-305.303
-291.159
-274.887
-257.793
-240.818
-224.569
-209.277
-195.072
-181.98
-169.936
-158.847
-148.519
-138.439
-129.486
-122.321
-116.311
2.51429
-0.144934
-2.38348
-5.20756
-7.28406
-9.9581
-12.8177
-16.2078
-19.8916
-24.5267
-28.4864
-33.9673
-37.9318
-43.6826
-48.9895
-53.6941
-62.1716
-69.4489
-80.6753
-94.0334
-109.45
-129.167
-152.261
-179.473
-210.708
-243.963
-273.546
-298.955
-317.379
-329.48
-334.734
-333.515
-326.829
-315.84
-302.416
-287.784
-272.902
-258.433
-244.659
-231.736
-219.724
-208.599
-198.301
-188.658
-179.228
-170.902
-164.304
-158.788
2.56035
-0.103575
-2.3348
-5.16143
-7.22845
-9.90369
-12.7616
-16.1658
-19.8556
-24.539
-28.5362
-34.0976
-38.1784
-44.0439
-49.5285
-54.4103
-63.0952
-70.5348
-81.9158
-95.3621
-110.835
-130.605
-153.703
-180.923
-212.343
-246.432
-277.626
-305.16
-326.167
-341.302
-349.875
-351.984
-348.566
-340.67
-329.997
-317.71
-304.789
-291.967
-279.581
-267.829
-256.805
-246.524
-236.959
-227.96
-219.146
-211.419
-205.367
-200.328
2.60633
-0.0624278
-2.28647
-5.11552
-7.17361
-9.85027
-12.7072
-16.1262
-19.8237
-24.5572
-28.5956
-34.2425
-38.4483
-44.4379
-50.1116
-55.1876
-64.0906
-71.7101
-83.2612
-96.8168
-112.379
-132.233
-155.364
-182.613
-214.222
-249.119
-281.889
-311.53
-335.14
-353.3
-365.181
-370.606
-370.395
-365.501
-357.467
-347.396
-336.3
-324.986
-313.867
-303.184
-293.066
-283.566
-274.684
-266.288
-258.055
-250.896
-245.36
-240.778
2.65226
-0.0215077
-2.23849
-5.06984
-7.11956
-9.79785
-12.6546
-16.0892
-19.7958
-24.5809
-28.6641
-34.4014
-38.7405
-44.8633
-50.7374
-56.0244
-65.1562
-72.9751
-84.7138
-98.4042
-114.092
-134.063
-157.256
-184.556
-216.351
-252.021
-286.32
-318.043
-344.264
-365.425
-380.563
-389.274
-392.203
-390.207
-384.695
-376.72
-367.321
-357.386
-347.41
-337.691
-328.399
-319.619
-311.374
-303.548
-295.867
-289.251
-284.209
-280.069
2.69813
0.019171
-2.1909
-5.0244
-7.06633
-9.74644
-12.6037
-16.0545
-19.7717
-24.6096
-28.7411
-34.5733
-39.0535
-45.3184
-51.404
-56.9184
-66.29
-74.3291
-86.2748
-100.129
-115.98
-136.102
-159.388
-186.756
-218.731
-255.13
-290.898
-324.666
-353.495
-377.625
-395.941
-407.883
-413.885
-414.688
-411.591
-405.612
-397.815
-389.161
-380.231
-371.388
-362.846
-354.722
-347.065
-339.771
-332.609
-326.506
-321.936
-318.221
2.74394
0.0595931
-2.1437
-4.97923
-7.01392
-9.69604
-12.5544
-16.0221
-19.751
-24.6429
-28.8259
-34.7569
-39.3856
-45.8008
-52.1086
-57.8664
-67.4887
-75.7701
-87.9435
-101.993
-118.048
-138.354
-161.758
-189.209
-221.351
-258.428
-295.596
-331.364
-362.78
-389.84
-411.239
-426.34
-435.352
-438.868
-438.102
-434.041
-427.775
-420.337
-412.392
-404.372
-396.535
-389.028
-381.923
-375.132
-368.461
-362.844
-358.718
-355.413
2.78969
0.0997424
-2.09692
-4.93435
-6.96234
-9.64664
-12.5068
-15.9918
-19.7335
-24.6803
-28.9175
-34.9508
-39.7347
-46.3078
-52.848
-58.8642
-68.7479
-77.2945
-89.7174
-103.996
-120.292
-140.813
-164.36
-191.902
-224.192
-261.888
-300.38
-338.094
-372.063
-402.003
-426.403
-444.573
-456.533
-462.696
-464.205
-462.015
-457.236
-450.965
-443.957
-436.716
-429.548
-422.631
-416.055
-409.747
-403.544
-398.391
-394.689
-391.778
2.8354
0.139603
-2.05057
-4.88977
-6.91161
-9.59823
-12.4607
-15.9634
-19.7188
-24.7209
-29.015
-35.1535
-40.0984
-46.8362
-53.6182
-59.9065
-70.0622
-78.897
-91.5915
-106.133
-122.706
-143.471
-167.179
-194.812
-227.226
-265.476
-305.212
-344.808
-381.282
-414.045
-441.383
-462.537
-477.386
-486.143
-489.894
-489.56
-486.256
-481.139
-475.043
-468.549
-462.019
-455.664
-449.594
-443.748
-437.991
-433.278
-429.979
-427.447
2.88106
0.179156
-2.00466
-4.8455
-6.86173
-9.5508
-12.4161
-15.9367
-19.7066
-24.7642
-29.1173
-35.3633
-40.4741
-47.3822
-54.4145
-60.9873
-71.4249
-80.5705
-93.5583
-108.396
-125.279
-146.31
-170.191
-197.91
-230.417
-269.152
-310.048
-351.456
-390.372
-425.899
-456.124
-480.19
-497.883
-509.208
-515.176
-516.689
-514.86
-510.899
-505.713
-499.952
-494.035
-488.212
-482.616
-477.202
-471.857
-467.549
-464.618
-462.437
2.92668
0.218385
-1.95923
-4.80157
-6.8127
-9.50432
-12.3728
-15.9116
-19.6964
-24.8093
-29.2231
-35.5781
-40.8588
-47.942
-55.2317
-62.0996
-72.8281
-82.3061
-95.6076
-110.772
-127.993
-149.306
-173.364
-201.155
-233.719
-272.868
-314.841
-357.983
-399.269
-437.505
-470.58
-497.512
-518.017
-531.906
-540.077
-543.43
-543.064
-540.239
-535.941
-530.888
-525.551
-520.22
-515.054
-510.025
-505.038
-501.079
-498.464
-496.589
2.97225
0.257271
-1.91428
-4.75798
-6.76454
-9.45876
-12.3308
-15.8877
-19.6878
-24.8555
-29.3312
-35.7959
-41.2494
-48.511
-56.0641
-63.2357
-74.2631
-84.093
-97.7265
-113.244
-130.823
-152.428
-176.66
-204.502
-237.082
-276.572
-319.536
-364.33
-407.908
-448.8
-484.704
-514.496
-537.8
-554.257
-564.625
-569.811
-570.892
-569.162
-565.692
-561.27
-556.43
-551.504
-546.68
-541.95
-537.229
-533.525
-531.135
-529.486
3.01779
0.295795
-1.86983
-4.71476
-6.71725
-9.41409
-12.2899
-15.8648
-19.6803
-24.902
-29.4402
-36.0147
-41.6424
-49.0847
-56.9052
-64.3871
-75.7196
-85.9186
-99.8991
-115.792
-133.741
-155.641
-180.034
-207.899
-240.452
-280.208
-324.078
-370.439
-416.225
-459.723
-498.445
-531.12
-557.241
-576.296
-588.861
-595.864
-598.364
-597.675
-594.947
-591.047
-586.574
-581.914
-577.293
-572.723
-568.128
-564.542
-562.247
-560.709
3.06328
0.333935
-1.82592
-4.67193
-6.67082
-9.37027
-12.2501
-15.8427
-19.6735
-24.9479
-29.5488
-36.2321
-42.0345
-49.6581
-57.7486
-65.5447
-77.1869
-87.7684
-102.107
-118.391
-136.715
-158.902
-183.435
-211.29
-243.77
-283.719
-328.406
-376.246
-424.152
-470.208
-511.751
-547.351
-576.331
-598.056
-612.867
-621.681
-625.562
-625.838
-623.74
-620.222
-615.953
-611.379
-606.773
-602.177
-597.519
-593.866
-591.49
-589.911
3.10874
0.371672
-1.78255
-4.62949
-6.62527
-9.32726
-12.2112
-15.8211
-19.6668
-24.9923
-29.6557
-36.446
-42.4222
-50.2264
-58.5873
-66.6989
-78.6531
-89.6268
-104.331
-121.014
-139.708
-162.166
-186.811
-214.616
-246.975
-287.044
-332.459
-381.685
-431.623
-480.182
-524.555
-563.133
-595.055
-619.565
-636.741
-647.429
-652.71
-653.913
-652.354
-649.089
-644.87
-640.207
-635.425
-630.603
-625.673
-621.746
-619.092
-617.297
3.15416
0.408982
-1.73976
-4.58746
-6.58058
-9.28503
-12.1731
-15.7998
-19.6598
-25.0345
-29.7593
-36.6541
-42.8018
-50.7845
-59.4141
-67.8402
-80.1059
-91.4769
-106.547
-123.63
-142.68
-165.387
-190.106
-217.82
-250.01
-290.124
-336.175
-386.689
-438.564
-489.569
-536.77
-578.388
-613.372
-640.821
-660.557
-673.286
-680.094
-682.301
-681.293
-678.235
-673.978
-669.11
-664.016
-658.818
-653.449
-649.075
-645.98
-643.828
3.19954
0.445844
-1.69756
-4.54587
-6.53677
-9.24353
-12.1357
-15.7784
-19.6521
-25.0736
-29.8585
-36.8544
-43.17
-51.3274
-60.222
-68.9585
-81.5328
-93.3012
-108.733
-126.208
-145.592
-168.516
-193.267
-220.845
-252.818
-292.904
-339.493
-391.19
-444.899
-498.279
-548.292
-593.001
-631.17
-661.746
-684.326
-699.389
-707.991
-711.44
-711.163
-708.422
-704.172
-699.095
-693.65
-688.011
-682.119
-677.21
-673.59
-671.014
3.24488
0.482233
-1.65597
-4.50472
-6.49384
-9.20272
-12.0989
-15.7568
-19.6432
-25.109
-29.952
-37.0446
-43.5234
-51.8504
-61.004
-70.0443
-82.921
-95.082
-110.866
-128.717
-148.404
-171.506
-196.243
-223.637
-255.344
-295.33
-342.357
-395.12
-450.548
-506.214
-558.995
-606.814
-648.264
-682.147
-707.899
-725.712
-736.518
-741.606
-742.432
-740.331
-736.352
-731.263
-725.611
-719.635
-713.287
-707.897
-703.808
-700.865
3.29017
0.518123
-1.61503
-4.46404
-6.45179
-9.16256
-12.0625
-15.7347
-19.6327
-25.1398
-30.0385
-37.2229
-43.8588
-52.3488
-61.7533
-71.0882
-84.258
-96.8016
-112.921
-131.125
-151.078
-174.315
-198.984
-226.148
-257.542
-297.355
-344.714
-398.415
-455.429
-513.266
-568.737
-619.639
-664.414
-701.732
-730.931
-751.919
-765.412
-772.641
-775.056
-774.057
-770.775
-766.062
-760.545
-754.531
-747.987
-742.359
-738.036
-734.949
3.3354
0.55349
-1.57475
-4.42385
-6.41064
-9.12302
-12.0264
-15.7118
-19.6203
-25.1654
-30.1171
-37.3874
-44.1734
-52.8184
-62.4636
-72.0814
-85.532
-98.4433
-114.877
-133.403
-153.579
-176.901
-201.45
-228.336
-259.371
-298.939
-346.519
-401.02
-459.463
-519.325
-577.363
-631.262
-679.339
-720.142
-752.911
-777.35
-793.948
-803.815
-808.34
-808.957
-806.867
-803.001
-798.064
-792.431
-786.083
-780.602
-776.43
-773.556
3.38056
0.588306
-1.53517
-4.38416
-6.37037
-9.08406
-11.9907
-15.6881
-19.6055
-25.1853
-30.1866
-37.5365
-44.4644
-53.2553
-63.1291
-73.0158
-86.7319
-99.9912
-116.713
-135.524
-155.874
-179.229
-203.603
-230.167
-260.798
-300.048
-347.739
-402.888
-462.581
-524.284
-584.719
-641.464
-692.726
-736.949
-773.251
-801.204
-821.098
-833.908
-840.925
-843.578
-843.112
-840.518
-836.571
-831.713
-825.938
-820.983
-817.343
-815.041
3.42565
0.622541
-1.49631
-4.345
-6.33102
-9.04566
-11.955
-15.6632
-19.5882
-25.1989
-30.2462
-37.6688
-44.7296
-53.656
-63.7444
-73.884
-87.8476
-101.431
-118.41
-137.466
-157.938
-181.272
-205.417
-231.615
-261.798
-300.661
-348.348
-403.987
-464.728
-528.049
-590.656
-650.03
-704.274
-751.72
-791.378
-822.742
-845.91
-861.714
-871.353
-876.219
-877.584
-876.482
-873.742
-869.873
-864.875
-860.654
-857.747
-856.194
3.47063
0.656167
-1.4582
-4.30638
-6.29259
-9.00778
-11.9195
-15.6371
-19.5679
-25.2058
-30.2952
-37.7831
-44.9669
-54.0176
-64.3051
-74.6799
-88.8703
-102.751
-119.952
-139.207
-159.748
-183.007
-206.872
-232.663
-262.357
-300.765
-348.334
-404.298
-465.869
-530.553
-595.057
-656.78
-713.72
-764.095
-806.835
-841.402
-867.709
-886.436
-898.687
-905.784
-908.998
-909.402
-907.88
-905.008
-900.784
-897.29
-895.092
-894.243
3.51551
0.689152
-1.42087
-4.26834
-6.25509
-8.97041
-11.884
-15.6095
-19.5446
-25.2055
-30.333
-37.8782
-45.1746
-54.3376
-64.8073
-75.3979
-89.7925
-103.939
-121.327
-140.734
-161.29
-184.419
-207.954
-233.302
-262.469
-300.359
-347.7
-403.822
-465.995
-531.76
-597.846
-661.586
-720.883
-773.852
-819.367
-856.855
-886.14
-907.744
-922.626
-931.999
-937.103
-939.037
-938.735
-936.843
-933.356
-930.536
-928.97
-928.746
3.56024
0.721462
-1.38436
-4.23089
-6.21855
-8.93353
-11.8484
-15.5804
-19.5181
-25.1979
-30.359
-37.9534
-45.3514
-54.6139
-65.2479
-76.0341
-90.6082
-104.989
-122.524
-142.034
-162.551
-185.5
-208.659
-233.532
-262.139
-299.453
-346.461
-402.577
-465.12
-531.674
-599.001
-664.397
-725.689
-780.919
-828.929
-869.106
-901.287
-925.826
-943.486
-955.324
-962.502
-966.117
-967.139
-966.292
-963.564
-961.401
-960.413
-960.76
3.6048
0.753066
-1.3487
-4.19406
-6.18298
-8.89712
-11.8128
-15.5496
-19.4881
-25.1825
-30.3729
-38.0081
-45.4964
-54.8453
-65.6245
-76.5852
-91.313
-105.894
-123.535
-143.101
-163.529
-186.249
-208.991
-233.36
-261.379
-298.066
-344.645
-400.601
-463.286
-530.336
-598.564
-665.249
-728.189
-785.399
-835.714
-878.512
-913.667
-941.378
-962.151
-976.832
-986.442
-992.038
-994.619
-994.991
-993.133
-991.687
-991.306
-992.248
3.64915
0.783925
-1.31393
-4.15788
-6.14841
-8.86118
-11.777
-15.5171
-19.4546
-25.1594
-30.3744
-38.0418
-45.6088
-55.0306
-65.9356
-77.0491
-91.9037
-106.651
-124.359
-143.931
-164.222
-186.668
-208.959
-232.8
-260.209
-296.228
-342.295
-397.946
-460.559
-527.826
-596.626
-664.264
-728.554
-787.549
-840.117
-885.658
-924.036
-955.33
-979.764
-997.884
-1010.5
-1018.58
-1023.13
-1025.05
-1024.32
-1023.79
-1024.17
-1025.84
3.69325
0.814004
-1.28008
-4.12238
-6.11486
-8.8257
-11.7411
-15.4827
-19.4174
-25.1282
-30.3634
-38.0543
-45.6884
-55.1695
-66.1804
-77.4249
-92.3789
-107.257
-124.993
-144.528
-164.636
-186.769
-208.577
-231.873
-258.654
-293.976
-339.46
-394.681
-457.029
-524.253
-593.328
-661.626
-727.047
-787.742
-842.651
-891.215
-933.214
-968.633
-997.373
-1019.62
-1035.92
-1047.1
-1054.16
-1058.08
-1058.83
-1059.53
-1060.93
-1063.53
3.73705
0.843265
-1.24719
-4.08759
-6.08237
-8.79068
-11.7049
-15.4465
-19.3767
-25.0891
-30.3398
-38.0455
-45.7351
-55.2619
-66.3587
-77.7126
-92.7385
-107.713
-125.44
-144.894
-164.78
-186.565
-207.867
-230.605
-256.748
-291.35
-336.195
-390.881
-452.797
-519.755
-588.846
-657.565
-723.973
-786.385
-843.853
-895.84
-941.959
-981.997
-1015.64
-1042.71
-1063.41
-1078.39
-1088.57
-1095.04
-1097.77
-1100.09
-1102.84
-1106.66
3.7805
0.871666
-1.21531
-4.05352
-6.05094
-8.75612
-11.6686
-15.4083
-19.3322
-25.0418
-30.3036
-38.0155
-45.7491
-55.3079
-66.4708
-77.9127
-92.9832
-108.022
-125.703
-145.038
-164.667
-186.074
-206.85
-229.022
-254.523
-288.395
-332.559
-386.627
-447.975
-514.483
-583.382
-652.343
-719.654
-783.861
-844.164
-900.005
-950.751
-995.872
-1034.89
-1067.35
-1093.14
-1112.64
-1126.67
-1136.36
-1141.66
-1146.14
-1150.74
-1156.16
3.82353
0.899165
-1.18448
-4.02023
-6.02063
-8.72203
-11.6319
-15.3681
-19.2841
-24.9865
-30.2549
-37.9644
-45.7307
-55.3083
-66.5176
-78.0265
-93.1149
-108.185
-125.789
-144.969
-164.311
-185.317
-205.555
-227.157
-252.015
-285.155
-328.612
-381.999
-442.677
-508.597
-577.155
-646.239
-714.419
-780.516
-843.894
-903.945
-959.762
-1010.44
-1055.19
-1093.46
-1124.94
-1149.73
-1168.47
-1182.25
-1190.96
-1198.4
-1205.56
-1213.24
3.86606
0.925717
-1.15475
-3.98773
-5.99144
-8.6884
-11.5951
-15.326
-19.2322
-24.9232
-30.1938
-37.8925
-45.6806
-55.2638
-66.5003
-78.0562
-93.1365
-108.209
-125.704
-144.7
-163.73
-184.317
-204.008
-225.042
-249.264
-281.677
-324.412
-377.079
-437.018
-502.26
-570.382
-639.525
-708.573
-776.639
-843.24
-907.717
-968.915
-1025.54
-1076.36
-1120.71
-1158.38
-1189.3
-1213.78
-1232.8
-1246.11
-1257.66
-1268.5
-1279.48
3.908
0.951277
-1.12618
-3.95606
-5.96343
-8.65526
-11.5579
-15.2818
-19.1766
-24.8519
-30.1206
-37.8002
-45.5994
-55.1757
-66.4207
-78.0043
-93.0517
-108.099
-125.459
-144.243
-162.942
-183.097
-202.239
-222.709
-246.304
-278.003
-320.015
-371.944
-431.107
-495.625
-563.269
-632.451
-702.378
-772.447
-842.309
-911.261
-977.919
-1040.65
-1097.89
-1148.77
-1193.03
-1230.74
-1262.07
-1287.7
-1307.11
-1324.33
-1340.4
-1356.16
3.94926
0.975794
-1.0988
-3.92526
-5.9366
-8.6226
-11.5204
-15.2355
-19.1174
-24.7728
-30.0355
-37.6878
-45.4879
-55.0452
-66.2809
-77.8739
-92.865
-107.862
-125.062