/*--------------------------------*- C++ -*----------------------------------*\
| =========                 |                                                 |
| \\      /  F ield         | OpenFOAM: The Open Source CFD Toolbox           |
|  \\    /   O peration     | Version:  2406                                  |
|   \\  /    A nd           | Website:  www.openfoam.com                      |
|    \\/     M anipulation  |                                                 |
\*---------------------------------------------------------------------------*/
FoamFile
{
    version     2.0;
    format      ascii;
    arch        "LSB;label=32;scalar=64";
    class       surfaceScalarField;
    location    "10";
    object      phi;
}
// * * * * * * * * * * * * * * * * * * * * * * * * * * * * * * * * * * * * * //

dimensions      [0 3 -1 0 0 0 0];

oriented        oriented;

internalField   nonuniform List<scalar> 
75600
(
0.00949073
-1236.14
1236.14
0.00549336
-1023.39
1023.4
0.00192496
-847.396
847.399
-0.000941982
-701.575
701.577
-0.00339463
-580.926
580.928
-0.00539033
-481.05
481.052
-0.00707493
-398.44
398.441
-0.00846381
-330.035
330.037
-0.00959819
-273.469
273.471
-0.0105756
-226.712
226.713
-0.0113386
-188.059
188.06
-0.0120043
-156.123
156.124
-0.0125363
-129.792
129.793
-0.0129638
-108.088
108.088
-0.0133366
-90.2533
90.2537
-0.0135968
-75.6439
75.6441
-0.0138272
-63.7398
63.7401
-0.0139809
-54.1133
54.1134
-0.0140841
-46.4263
46.4264
-0.0141288
-40.404
40.4041
-0.0141127
-35.821
35.821
-0.0140158
-32.5099
32.5099
-0.0138055
-30.3564
30.3562
-0.013459
-29.2807
29.2803
-0.0129022
-29.1394
29.1388
-0.0122628
-23.2376
23.237
-0.0115648
-18.5233
18.5226
-0.0108763
-14.7457
14.745
-0.0102397
-11.7425
11.7419
-0.0096513
-9.3361
9.3355
-0.00911221
-7.43932
7.43877
-0.0086655
-5.92043
5.91998
-0.00823861
-4.71178
4.71135
-0.00788345
-3.74806
3.7477
-0.00757371
-2.99407
2.99375
-0.00731845
-2.3993
2.39904
-0.00711893
-1.91053
1.91033
-0.00693306
-1.51567
1.51548
-0.00688822
-1.22073
1.22067
-0.00678254
-0.984084
0.983977
-0.00673531
-0.793376
0.793331
-0.0067641
-0.640536
0.640569
-0.00684242
-0.525764
0.525835
-0.00690082
-0.436935
0.436993
-0.00692821
-0.37093
0.370956
-0.00695181
-0.324027
0.324048
-0.00701266
-0.29374
0.293798
-0.278767
0.278862
-0.00710983
0.0344066
-1236.12
0.0257613
-1023.36
0.0183526
-847.312
0.0122882
-701.549
0.00718656
-580.913
0.00298828
-481.057
-0.000510607
-398.426
-0.00340795
-330.051
-0.00579829
-273.491
-0.00781241
-226.718
-0.00943413
-188.056
-0.0108194
-156.127
-0.0119442
-129.781
-0.0128674
-108.078
-0.0136559
-90.2439
-0.0142628
-75.6335
-0.0147862
-63.7314
-0.0151899
-54.1058
-0.0155057
-46.4158
-0.0157315
-40.385
-0.0158703
-35.7979
-0.0159068
-32.4912
-0.0158034
-30.3431
-0.0155299
-29.2772
-0.0149827
-29.1435
-0.0142654
-23.2235
-0.013418
-18.4995
-0.0125252
-14.7338
-0.0116125
-11.7321
-0.0107607
-9.34277
-0.00991396
-7.43846
-0.00916635
-5.92426
-0.0084379
-4.71985
-0.00787255
-3.76235
-0.00735402
-2.99869
-0.00679972
-2.39014
-0.00641933
-1.90926
-0.00622385
-1.52776
-0.00605395
-1.22207
-0.00587169
-0.980237
-0.00568315
-0.789815
-0.00584554
-0.641729
-0.00587499
-0.525608
-0.00593779
-0.43691
-0.00597531
-0.370916
-0.00603191
-0.323987
-0.00609893
-0.293684
-0.278703
-0.00617978
0.0588612
-1236.1
0.0450654
-1023.35
0.0333901
-847.3
0.0237899
-701.54
0.015766
-580.905
0.00914254
-481.05
0.00363926
-398.421
-0.000925416
-330.047
-0.0046929
-273.487
-0.00785098
-226.715
-0.0104228
-188.053
-0.0125973
-156.125
-0.0143803
-129.779
-0.0158518
-108.077
-0.0171008
-90.2427
-0.0180943
-75.6326
-0.0189456
-63.7305
-0.0196292
-54.1051
-0.0201853
-46.4152
-0.0206198
-40.3846
-0.0209408
-35.7976
-0.0211338
-32.491
-0.0211567
-30.3431
-0.0209659
-29.2774
-0.0204171
-29.144
-0.0195852
-23.2244
-0.0185242
-18.5006
-0.0173359
-14.735
-0.0160442
-11.7333
-0.0148071
-9.34402
-0.0135384
-7.43973
-0.0123764
-5.92541
-0.0112385
-4.72096
-0.010353
-3.76321
-0.00953033
-2.99951
-0.00863919
-2.39103
-0.00805169
-1.90982
-0.00772866
-1.52809
-0.00737891
-1.22234
-0.00713728
-0.980574
-0.00687208
-0.790124
-0.00701872
-0.641726
-0.00699307
-0.525591
-0.00701854
-0.436892
-0.00704774
-0.370894
-0.00712066
-0.323921
-0.00717024
-0.293644
-0.278678
-0.00720042
0.0834835
-1236.08
0.0644629
-1023.33
0.0484712
-847.284
0.0353042
-701.526
0.0243291
-580.894
0.0152659
-481.041
0.00774188
-398.413
0.00150814
-330.04
-0.00364694
-273.482
-0.00795412
-226.71
-0.0114805
-188.05
-0.0144481
-156.122
-0.0168933
-129.776
-0.0189178
-108.075
-0.0206323
-90.241
-0.022019
-75.6312
-0.0232051
-63.7294
-0.0241782
-54.1041
-0.024986
-46.4144
-0.0256431
-40.3839
-0.0261632
-35.7971
-0.026532
-32.4907
-0.0267047
-30.343
-0.0266241
-29.2775
-0.0261051
-29.1446
-0.0251798
-23.2253
-0.0239127
-18.5019
-0.0224303
-14.7365
-0.0207727
-11.735
-0.0191509
-9.34566
-0.017463
-7.4414
-0.0159034
-5.92696
-0.0143814
-4.72243
-0.0131732
-3.76438
-0.0120644
-3.00063
-0.0108762
-2.39221
-0.0100641
-1.91055
-0.00964327
-1.52853
-0.00913782
-1.22277
-0.00881991
-0.981032
-0.00846736
-0.790496
-0.00855049
-0.641792
-0.00845327
-0.525657
-0.00840811
-0.436943
-0.00841138
-0.370901
-0.00846338
-0.323881
-0.0084714
-0.293646
-0.278723
-0.00843282
0.108551
-1236.05
0.0843739
-1023.31
0.0641261
-847.264
0.0474481
-701.51
0.033579
-580.88
0.0221214
-481.03
0.0126222
-398.404
0.00475017
-330.032
-0.001757
-273.475
-0.00718613
-226.705
-0.0116443
-188.045
-0.0153866
-156.118
-0.0184793
-129.773
-0.0210454
-108.072
-0.0232177
-90.2388
-0.024993
-75.6294
-0.0265124
-63.7279
-0.0277771
-54.1029
-0.0288412
-46.4134
-0.0297299
-40.383
-0.0304624
-35.7964
-0.0310255
-32.4901
-0.031373
-30.3426
-0.0314366
-29.2774
-0.0309955
-29.145
-0.0300242
-23.2263
-0.0286005
-18.5033
-0.0268759
-14.7383
-0.024909
-11.737
-0.0229572
-9.34763
-0.0209141
-7.44343
-0.0190165
-5.92885
-0.0171776
-4.7242
-0.0156894
-3.76582
-0.0143479
-3.002
-0.012943
-2.39362
-0.0119414
-1.91143
-0.011424
-1.52906
-0.0107897
-1.22333
-0.0104095
-0.981565
-0.00998417
-0.79092
-0.00995485
-0.641943
-0.00979438
-0.525805
-0.00967601
-0.437066
-0.00962708
-0.370963
-0.00961298
-0.32391
-0.0095508
-0.293713
-0.278855
-0.00942346
0.134221
-1236.01
0.104986
-1023.28
0.0805788
-847.24
0.0604735
-701.49
0.0437853
-580.863
0.0300007
-481.016
0.018585
-398.392
0.00912885
-330.023
0.0013114
-273.468
-0.00520317
-226.698
-0.0105625
-188.04
-0.0150539
-156.114
-0.018774
-129.77
-0.0218657
-108.069
-0.0244841
-90.2362
-0.0266399
-75.6273
-0.0284887
-63.726
-0.0300441
-54.1013
-0.0313683
-46.412
-0.0324961
-40.3819
-0.033452
-35.7955
-0.0342264
-32.4893
-0.0347712
-30.3421
-0.0350084
-29.2772
-0.0346836
-29.1453
-0.0336993
-23.2273
-0.032149
-18.5049
-0.0302099
-14.7403
-0.0279632
-11.7392
-0.0257076
-9.34991
-0.0233413
-7.44578
-0.0211356
-5.93103
-0.0190159
-4.72623
-0.0172688
-3.76751
-0.0157189
-3.00359
-0.0141429
-2.3952
-0.0129709
-1.91247
-0.0123445
-1.52971
-0.0116053
-1.22399
-0.0111527
-0.98215
-0.0106624
-0.791406
-0.0105007
-0.64219
-0.0102742
-0.526031
-0.010087
-0.437259
-0.00997258
-0.371095
-0.00987144
-0.324024
-0.0097198
-0.293867
-0.279099
-0.00948692
0.16041
-1235.97
0.126051
-1023.24
0.0974396
-847.211
0.0738853
-701.466
0.0543633
-580.844
0.0382489
-481
0.0249137
-398.379
0.0138749
-330.012
0.00475152
-273.458
-0.00284443
-226.691
-0.00910114
-188.034
-0.0143392
-156.108
-0.0186855
-129.765
-0.0223029
-108.066
-0.0253695
-90.2331
-0.0279099
-75.6247
-0.0300945
-63.7238
-0.0319499
-54.0995
-0.0335462
-46.4105
-0.0349281
-40.3806
-0.0361276
-35.7943
-0.0371368
-32.4883
-0.0379076
-30.3413
-0.0383521
-29.2767
-0.0381809
-29.1455
-0.0372065
-23.2283
-0.0355412
-18.5066
-0.0333906
-14.7424
-0.0308624
-11.7418
-0.0282973
-9.3525
-0.0256039
-7.44845
-0.0230857
-5.93353
-0.0206861
-4.72854
-0.0186762
-3.76945
-0.0169139
-3.00539
-0.0151777
-2.39696
-0.0138368
-1.9137
-0.0130789
-1.53049
-0.0122415
-1.22475
-0.0116922
-0.982802
-0.0111325
-0.791967
-0.0108341
-0.642542
-0.0105312
-0.526339
-0.0102719
-0.437531
-0.0100789
-0.371308
-0.00988128
-0.32423
-0.00963146
-0.294121
-0.279459
-0.00928814
0.187173
-1235.92
0.147589
-1023.2
0.114701
-847.178
0.0876468
-701.439
0.0652617
-580.821
0.0467941
-480.981
0.0315292
-398.364
0.0189019
-329.999
0.00847028
-273.448
-0.000208124
-226.682
-0.00736286
-188.026
-0.0133484
-156.102
-0.0183219
-129.76
-0.0224681
-108.062
-0.0259876
-90.2296
-0.0289194
-75.6218
-0.0314488
-63.7213
-0.0336167
-54.0973
-0.0355006
-46.4086
-0.0371569
-40.3789
-0.0386241
-35.7928
-0.0398976
-32.4871
-0.0409294
-30.3403
-0.0416214
-29.2761
-0.0416468
-29.1455
-0.0407072
-23.2292
-0.0389363
-18.5084
-0.0365721
-14.7448
-0.0337532
-11.7446
-0.0308643
-9.35541
-0.0278304
-7.45146
-0.0249861
-5.93636
-0.0222973
-4.73114
-0.0200141
-3.77168
-0.0180269
-3.00741
-0.0161287
-2.39888
-0.0146153
-1.91512
-0.0137039
-1.53143
-0.012764
-1.22561
-0.0120952
-0.983546
-0.0114582
-0.79261
-0.0110285
-0.643002
-0.0106408
-0.526736
-0.0103048
-0.437885
-0.0100252
-0.371606
-0.00973101
-0.324527
-0.00938594
-0.294472
-0.279927
-0.00893862
0.214613
-1235.87
0.16968
-1023.16
0.132428
-847.141
0.101818
-701.408
0.0765318
-580.796
0.0556919
-480.96
0.0384872
-398.347
0.024264
-329.985
0.012522
-273.436
0.00276095
-226.672
-0.0052913
-188.018
-0.0120241
-156.096
-0.0176264
-129.755
-0.0223038
-108.057
-0.0262811
-90.2257
-0.0296115
-75.6185
-0.0324967
-63.7184
-0.0349911
-54.0948
-0.0371812
-46.4064
-0.0391348
-40.377
-0.0408983
-35.7911
-0.0424713
-32.4855
-0.0438055
-30.339
-0.044793
-29.2751
-0.0450684
-29.1452
-0.0441958
-23.2301
-0.0423348
-18.5103
-0.0397594
-14.7474
-0.0366443
-11.7477
-0.0334201
-9.35866
-0.0300344
-7.45482
-0.0268523
-5.93952
-0.0238659
-4.73404
-0.0213
-3.77418
-0.0190749
-3.00967
-0.0170089
-2.40098
-0.0153206
-1.91674
-0.0142379
-1.53255
-0.0131849
-1.2266
-0.012383
-0.984401
-0.0116613
-0.793341
-0.0111112
-0.643567
-0.0106353
-0.527223
-0.0102191
-0.438322
-0.00984971
-0.371987
-0.0094658
-0.32491
-0.0090379
-0.29491
-0.28048
-0.00850501
0.24283
-1235.8
0.192415
-1023.11
0.150712
-847.099
0.116485
-701.374
0.0882614
-580.768
0.0650288
-480.937
0.0458726
-398.327
0.0300535
-329.969
0.0169997
-273.423
0.00615843
-226.662
-0.00278819
-188.009
-0.0102661
-156.088
-0.0164965
-129.748
-0.0217069
-108.052
-0.0261468
-90.2212
-0.0298839
-75.6148
-0.033136
-63.7152
-0.035973
-54.092
-0.0384899
-46.4039
-0.0407675
-40.3747
-0.0428604
-35.789
-0.0447733
-32.4836
-0.0464589
-30.3373
-0.0477991
-29.2737
-0.0483887
-29.1446
-0.0476246
-23.2309
-0.0456961
-18.5122
-0.0429178
-14.7503
-0.039506
-11.7511
-0.0359387
-9.36226
-0.0321934
-7.45854
-0.0286645
-5.94304
-0.0253732
-4.73724
-0.0225171
-3.77699
-0.0200416
-3.01217
-0.0177993
-2.40325
-0.015935
-1.91855
-0.0146674
-1.53385
-0.0134889
-1.22774
-0.0125509
-0.985377
-0.0117389
-0.794161
-0.0110803
-0.644231
-0.0105184
-0.527799
-0.0100218
-0.438838
-0.0095674
-0.372446
-0.00910842
-0.325368
-0.00861768
-0.295417
-0.281092
-0.00802556
0.271932
-1235.74
0.215889
-1023.05
0.169631
-847.053
0.131725
-701.336
0.100527
-580.737
0.0748808
-480.912
0.0537659
-398.306
0.036348
-329.952
0.021989
-273.409
0.0100728
-226.65
0.000236993
-188
-0.00798229
-156.08
-0.0148392
-129.742
-0.0205831
-108.046
-0.0254895
-90.2163
-0.0296412
-75.6106
-0.0332729
-63.7116
-0.0364703
-54.0888
-0.0393378
-46.401
-0.0419698
-40.3721
-0.0444305
-35.7865
-0.0467305
-32.4813
-0.0488242
-30.3352
-0.0505849
-29.272
-0.0515654
-29.1437
-0.050961
-23.2315
-0.0489958
-18.5142
-0.0460295
-14.7533
-0.0423257
-11.7548
-0.0384117
-9.36621
-0.0343023
-7.46262
-0.0304205
-5.94691
-0.0268176
-4.74077
-0.0236648
-3.78009
-0.0209278
-3.01494
-0.0184988
-2.4057
-0.0164579
-1.92056
-0.0149963
-1.53535
-0.0136827
-1.22903
-0.0126136
-0.98647
-0.0117075
-0.79507
-0.0109527
-0.644992
-0.0103106
-0.528462
-0.00973788
-0.439428
-0.00921096
-0.372974
-0.00869642
-0.325889
-0.00816195
-0.295975
-0.281743
-0.00752964
0.302029
-1235.66
0.240194
-1022.99
0.189274
-847.002
0.147621
-701.295
0.11341
-580.702
0.0853316
-480.884
0.0622535
-398.283
0.0432411
-329.933
0.0275829
-273.393
0.0146006
-226.637
0.00388383
-187.989
-0.00506976
-156.071
-0.0125491
-129.734
-0.0188262
-108.04
-0.024203
-90.211
-0.0287778
-75.606
-0.0328029
-63.7076
-0.0363804
-54.0852
-0.0396255
-46.3978
-0.0426466
-40.3691
-0.045519
-35.7837
-0.0482604
-32.4786
-0.0508284
-30.3326
-0.053088
-29.2697
-0.0545508
-29.1422
-0.0541689
-23.2319
-0.0522069
-18.5162
-0.049075
-14.7565
-0.04509
-11.7588
-0.0408306
-9.3705
-0.0363563
-7.46706
-0.0321182
-5.95115
-0.0281981
-4.74462
-0.0247427
-3.7835
-0.0217356
-3.01796
-0.0191101
-2.40835
-0.0168913
-1.92276
-0.0152314
-1.53704
-0.0137795
-1.23048
-0.0125881
-0.987675
-0.0115885
-0.796071
-0.0107492
-0.645845
-0.0100355
-0.529201
-0.00939588
-0.440082
-0.00881297
-0.373559
-0.00826045
-0.326456
-0.00769616
-0.296568
-0.282412
-0.00704092
0.333229
-1235.58
0.265429
-1022.92
0.209733
-846.946
0.164263
-701.249
0.126998
-580.665
0.0964747
-480.853
0.0714307
-398.258
0.050831
-329.912
0.0338853
-273.376
0.0198495
-226.623
0.00826422
-187.977
-0.00141438
-156.061
-0.00950979
-129.726
-0.0163179
-108.033
-0.0221684
-90.2051
-0.0271746
-75.601
-0.0316081
-63.7031
-0.0355881
-54.0813
-0.0392406
-46.3942
-0.0426904
-40.3656
-0.0460245
-35.7804
-0.0492698
-32.4754
-0.0523882
-30.3295
-0.0552385
-29.2668
-0.0572902
-29.1402
-0.0572065
-23.232
-0.0552982
-18.5181
-0.0520317
-14.7598
-0.0477835
-11.763
-0.0431856
-9.37513
-0.0383499
-7.47186
-0.0337556
-5.95574
-0.0295135
-4.7488
-0.0257512
-3.78723
-0.0224691
-3.02125
-0.0196383
-2.4112
-0.0172398
-1.92515
-0.0153836
-1.53894
-0.013797
-1.23206
-0.0124938
-0.988982
-0.0114056
-0.797162
-0.0104939
-0.646778
-0.00971844
-0.530003
-0.00902488
-0.440785
-0.00840455
-0.374184
-0.00782994
-0.327053
-0.00724815
-0.297178
-0.283082
-0.00658561
0.365653
-1235.49
0.291703
-1022.85
0.231105
-846.886
0.181743
-701.2
0.141395
-580.625
0.10841
-480.82
0.0814072
-398.231
0.0592305
-329.89
0.0410158
-273.358
0.0259448
-226.608
0.0135073
-187.965
0.00311745
-156.051
-0.00558525
-129.717
-0.01292
-108.026
-0.0192462
-90.1988
-0.0246926
-75.5956
-0.0295502
-63.6983
-0.0339571
-54.0769
-0.038051
-46.3901
-0.041974
-40.3617
-0.0458268
-35.7765
-0.0496475
-32.4716
-0.0534035
-30.3258
-0.0569497
-29.2633
-0.0597154
-29.1374
-0.0600199
-23.2317
-0.0582276
-18.5199
-0.0548675
-14.7632
-0.0503819
-11.7675
-0.0454589
-9.38009
-0.0402704
-7.47702
-0.035323
-5.96069
-0.0307559
-4.75331
-0.0266851
-3.79126
-0.0231276
-3.0248
-0.0200847
-2.41425
-0.0175044
-1.92773
-0.0154605
-1.54101
-0.0137478
-1.23378
-0.0123427
-0.990384
-0.0111745
-0.798339
-0.0102006
-0.64778
-0.00937209
-0.530854
-0.00863776
-0.441525
-0.00799541
-0.374838
-0.00740978
-0.327666
-0.00681842
-0.297793
-0.283747
-0.00615708
0.399428
-1235.39
0.319124
-1022.77
0.253501
-846.82
0.200177
-701.147
0.156708
-580.581
0.12126
-480.785
0.0923047
-398.202
0.0685758
-329.866
0.0491151
-273.339
0.0330331
-226.591
0.0197661
-187.952
0.00868335
-156.04
-0.000613885
-129.708
-0.00846889
-108.018
-0.0152712
-90.192
-0.0211659
-75.5897
-0.0264651
-63.693
-0.0313256
-54.072
-0.0358984
-46.3855
-0.0403448
-40.3573
-0.0447805
-35.7721
-0.0492572
-32.4671
-0.0537506
-30.3213
-0.0581139
-29.2589
-0.0617376
-29.1338
-0.0625364
-23.2309
-0.0609358
-18.5215
-0.057534
-14.7666
-0.0528461
-11.7722
-0.0476187
-9.38535
-0.0420914
-7.48251
-0.0367978
-5.96599
-0.0319055
-4.75816
-0.0275281
-3.79561
-0.0236995
-3.02862
-0.0204396
-2.41752
-0.017677
-1.9305
-0.0154603
-1.54324
-0.013631
-1.2356
-0.0121332
-0.99188
-0.0108948
-0.799596
-0.00986746
-0.64884
-0.00899488
-0.531746
-0.0082323
-0.442295
-0.00757825
-0.375513
-0.00698674
-0.328291
-0.00639153
-0.29841
-0.2844
-0.00574224
0.434671
-1235.28
0.3478
-1022.68
0.277009
-846.749
0.219647
-701.089
0.173022
-580.535
0.135107
-480.747
0.10422
-398.171
0.0789606
-329.841
0.0582841
-273.318
0.0412215
-226.574
0.0271517
-187.938
0.015398
-156.028
0.00552236
-129.698
-0.00284389
-108.009
-0.0101224
-90.1848
-0.0164741
-75.5834
-0.0222331
-63.6873
-0.0275772
-54.0667
-0.0326714
-46.3804
-0.0376977
-40.3523
-0.0427891
-35.767
-0.0480136
-32.4619
-0.0533578
-30.3159
-0.0586764
-29.2536
-0.0633244
-29.1291
-0.0647414
-23.2295
-0.0634231
-18.5229
-0.0600442
-14.7701
-0.0551993
-11.777
-0.0496971
-9.39089
-0.0438507
-7.48833
-0.0382223
-5.97162
-0.0330085
-4.76332
-0.0283318
-3.80025
-0.02424
-3.0327
-0.0207602
-2.421
-0.0178185
-1.93344
-0.0154468
-1.54562
-0.0135097
-1.23753
-0.0119271
-0.993468
-0.0106277
-0.800927
-0.00955461
-0.649949
-0.00864776
-0.532671
-0.00786914
-0.443089
-0.00721127
-0.376204
-0.00661757
-0.328921
-0.00602348
-0.299023
-0.285038
-0.00539195
0.47152
-1235.16
0.377848
-1022.59
0.301748
-846.673
0.240271
-701.028
0.190469
-580.485
0.150091
-480.706
0.117293
-398.138
0.0905416
-329.814
0.0686884
-273.296
0.0506831
-226.556
0.0358451
-187.923
0.0234487
-156.016
0.0130151
-129.688
0.00414941
-108
-0.00360257
-90.1771
-0.0104197
-75.5765
-0.0166583
-63.681
-0.0225184
-54.0608
-0.0281805
-46.3748
-0.0338499
-40.3466
-0.0396783
-35.7612
-0.0457541
-32.4558
-0.0520771
-30.3096
-0.0585082
-29.2472
-0.0643704
-29.1233
-0.0665491
-23.2273
-0.0656202
-18.5238
-0.0623423
-14.7734
-0.0573969
-11.7819
-0.0516586
-9.39667
-0.0455199
-7.49443
-0.0395727
-5.97756
-0.0340473
-4.76881
-0.029084
-3.80518
-0.0247389
-3.03703
-0.0210399
-2.4247
-0.0179274
-1.93655
-0.0154185
-1.54813
-0.0133816
-1.23957
-0.011723
-0.995148
-0.0103705
-0.802324
-0.0092571
-0.6511
-0.00832368
-0.533624
-0.00753663
-0.4439
-0.00687772
-0.376903
-0.0062824
-0.329551
-0.00569112
-0.29963
-0.285662
-0.0050779
0.510115
-1235.04
0.409397
-1022.49
0.327841
-846.592
0.262177
-700.962
0.209173
-580.432
0.166345
-480.664
0.131672
-398.104
0.103471
-329.786
0.0804899
-273.273
0.0615889
-226.537
0.0460246
-187.907
0.0330204
-156.003
0.022054
-129.677
0.0127048
-107.991
0.00448304
-90.1688
-0.00280692
-75.5692
-0.00954632
-63.6743
-0.0159582
-54.0544
-0.02224
-46.3685
-0.0286223
-40.3403
-0.035279
-35.7545
-0.0423219
-32.4488
-0.0497683
-30.3022
-0.0574891
-29.2395
-0.0647818
-29.116
-0.0678871
-23.2243
-0.0674723
-18.5242
-0.0643887
-14.7765
-0.0594122
-11.7869
-0.0534868
-9.40262
-0.0470898
-7.50078
-0.0408463
-5.9838
-0.0350268
-4.77458
-0.0297947
-3.81037
-0.0252078
-3.0416
-0.0212955
-2.4286
-0.0180254
-1.93982
-0.0153944
-1.55076
-0.0132651
-1.24171
-0.0115393
-0.996911
-0.0101402
-0.803774
-0.0089914
-0.652282
-0.00803767
-0.534597
-0.00724569
-0.444723
-0.0065846
-0.377608
-0.00598672
-0.33018
-0.00540051
-0.300229
-0.286272
-0.00480895
0.550599
-1234.9
0.442583
-1022.38
0.355417
-846.504
0.28549
-700.892
0.229268
-580.376
0.184012
-480.618
0.14751
-398.067
0.117915
-329.757
0.0938647
-273.249
0.0741242
-226.518
0.0578838
-187.891
0.0443131
-155.989
0.032845
-129.665
0.0230317
-107.981
0.0143467
-90.1602
0.00657605
-75.5615
-0.000685887
-63.667
-0.00768822
-54.0474
-0.0146466
-46.3615
-0.02182
-40.3331
-0.0294065
-35.747
-0.0375461
-32.4407
-0.0462776
-30.2934
-0.055488
-29.2302
-0.0644554
-29.107
-0.0686755
-23.2201
-0.0689192
-18.524
-0.0661397
-14.7793
-0.061215
-11.7918
-0.0551631
-9.4087
-0.0485503
-7.50734
-0.0420406
-5.99029
-0.035953
-4.78063
-0.0304739
-3.81581
-0.0256587
-3.04639
-0.0215461
-2.43271
-0.018134
-1.94323
-0.0153917
-1.5535
-0.0131764
-1.24394
-0.0113895
-0.998746
-0.00994591
-0.805265
-0.00876466
-0.653489
-0.00779506
-0.535587
-0.00699905
-0.445556
-0.0063335
-0.378316
-0.00573221
-0.330807
-0.00515209
-0.300822
-0.286869
-0.00458072
0.593131
-1234.76
0.477542
-1022.26
0.384605
-846.411
0.310345
-700.818
0.250899
-580.316
0.203247
-480.571
0.164969
-398.029
0.134049
-329.726
0.109001
-273.224
0.0884882
-226.497
0.0716309
-187.874
0.0575431
-155.975
0.04561
-129.653
0.0353563
-107.971
0.0262168
-90.1511
0.0179595
-75.5532
0.0101509
-63.6592
0.00251601
-54.0398
-0.00518209
-46.3538
-0.0132324
-40.3251
-0.0218612
-35.7383
-0.0312413
-32.4313
-0.0414384
-30.2832
-0.0523624
-29.2193
-0.0632791
-29.0961
-0.0688268
-23.2145
-0.0698944
-18.523
-0.0675469
-14.7817
-0.062772
-11.7965
-0.0566662
-9.41482
-0.04989
-7.51406
-0.0431537
-5.997
-0.0368326
-4.7869
-0.0311315
-3.82148
-0.0261053
-3.0514
-0.0218116
-2.43699
-0.0182722
-1.94677
-0.0154259
-1.55636
-0.0131302
-1.24627
-0.0112845
-1.00064
-0.0097955
-0.806791
-0.00858335
-0.654719
-0.0075997
-0.536594
-0.006798
-0.446398
-0.00612542
-0.379029
-0.00552061
-0.331435
-0.00494749
-0.301412
-0.287458
-0.00439433
0.637872
-1234.61
0.514422
-1022.14
0.415553
-846.313
0.336892
-700.739
0.274218
-580.253
0.224214
-480.521
0.184232
-397.989
0.152064
-329.694
0.126101
-273.198
0.104894
-226.476
0.0874895
-187.857
0.0729418
-155.96
0.060587
-129.641
0.0499214
-107.96
0.0403388
-90.1415
0.0315886
-75.5445
0.0232087
-63.6509
0.0148955
-54.0315
0.00638949
-46.3453
-0.00263285
-40.3161
-0.0124282
-35.7285
-0.0232086
-32.4205
-0.0350718
-30.2714
-0.0479581
-29.2064
-0.0611316
-29.0829
-0.0682467
-23.2074
-0.0703259
-18.5209
-0.0685573
-14.7835
-0.0640463
-11.801
-0.0579726
-9.4209
-0.0510966
-7.52088
-0.044184
-6.00388
-0.0376721
-4.79337
-0.0317771
-3.82733
-0.0265621
-3.05659
-0.0221104
-2.44143
-0.018455
-1.95043
-0.0155098
-1.55932
-0.0131383
-1.24869
-0.0112351
-1.00259
-0.00970149
-0.808351
-0.00846168
-0.655975
-0.00746498
-0.537621
-0.00665472
-0.447254
-0.00597226
-0.379751
-0.00536312
-0.332067
-0.00479593
-0.302003
-0.288043
-0.00425681
0.684988
-1234.44
0.553378
-1022.01
0.448407
-846.208
0.365281
-700.656
0.29939
-580.188
0.247085
-480.468
0.20548
-397.947
0.172163
-329.66
0.14538
-273.171
0.123568
-226.454
0.105696
-187.839
0.0907546
-155.946
0.0780283
-129.628
0.0669839
-107.949
0.056973
-90.1315
0.0477248
-75.5352
0.0387473
-63.6419
0.0297064
-54.0224
0.0203171
-46.3359
0.0102191
-40.306
-0.000879553
-35.7174
-0.0132361
-32.4082
-0.0269868
-30.2576
-0.0421118
-29.1913
-0.0578834
-29.0672
-0.0668337
-23.1985
-0.0701362
-18.5176
-0.0691137
-14.7846
-0.0649978
-11.8051
-0.0590564
-9.42684
-0.0521571
-7.52771
-0.0451301
-6.01086
-0.0384765
-4.79998
-0.0324197
-3.83335
-0.0270448
-3.06195
-0.0224594
-2.44601
-0.0186967
-1.9542
-0.0156573
-1.56239
-0.0132131
-1.25118
-0.0112522
-1.00459
-0.00967513
-0.809946
-0.00840968
-0.657259
-0.00739761
-0.53867
-0.00657336
-0.448125
-0.0058767
-0.380484
-0.00526043
-0.332706
-0.00469502
-0.302598
-0.288628
-0.00416259
0.734665
-1234.26
0.594576
-1021.87
0.483331
-846.096
0.395676
-700.569
0.326581
-580.118
0.27205
-480.414
0.228915
-397.904
0.194556
-329.626
0.167062
-273.144
0.144749
-226.432
0.1265
-187.821
0.11124
-155.93
0.0981996
-129.615
0.0868153
-107.938
0.0763931
-90.1211
0.066643
-75.5254
0.0570402
-63.6323
0.0472181
-54.0126
0.0368649
-46.3256
0.0255773
-40.2947
0.0130256
-35.7049
-0.00110019
-32.3941
-0.0169819
-30.2417
-0.0346498
-29.1736
-0.0533972
-29.0484
-0.0644801
-23.1874
-0.0692424
-18.5128
-0.0691547
-14.7847
-0.0655827
-11.8086
-0.0598895
-9.43252
-0.0530579
-7.53446
-0.0459901
-6.01787
-0.0392495
-4.80667
-0.0330693
-3.83949
-0.0275695
-3.06744
-0.0228742
-2.45071
-0.0190133
-1.95807
-0.0158859
-1.56555
-0.0133712
-1.25373
-0.0113524
-1.00663
-0.00973375
-0.811575
-0.00844291
-0.658573
-0.00741075
-0.539744
-0.00656611
-0.449015
-0.00585058
-0.381231
-0.00522327
-0.333357
-0.00465403
-0.303202
-0.289219
-0.00412046
0.787088
-1234.08
0.638187
-1021.72
0.520489
-845.979
0.428248
-700.476
0.355979
-580.046
0.299294
-480.357
0.254744
-397.86
0.219463
-329.591
0.191385
-273.115
0.168686
-226.409
0.150161
-187.802
0.134669
-155.915
0.121379
-129.602
0.109698
-107.926
0.0988854
-90.1103
0.0886299
-75.5152
0.0783725
-63.6221
0.0677125
-54.0019
0.0563064
-46.3142
0.0437063
-40.2821
0.0295382
-35.6907
0.0134327
-32.378
-0.00484624
-30.2234
-0.0253907
-29.1531
-0.0475288
-29.0263
-0.0610725
-23.1738
-0.067557
-18.5063
-0.0686148
-14.7837
-0.0657543
-11.8114
-0.0604418
-9.4378
-0.0537843
-7.54104
-0.0467609
-6.02483
-0.0399939
-4.8134
-0.0337366
-3.84572
-0.0281515
-3.07302
-0.0233693
-2.45549
-0.0194204
-1.96203
-0.0162116
-1.56878
-0.0136268
-1.25634
-0.0115498
-1.00871
-0.00989013
-0.813244
-0.00857087
-0.659922
-0.00751175
-0.540849
-0.00664011
-0.449929
-0.00590097
-0.382
-0.00525742
-0.334027
-0.00467652
-0.303824
-0.289826
-0.00413122
0.842456
-1233.88
0.684396
-1021.56
0.56006
-845.854
0.463176
-700.38
0.387765
-579.971
0.329022
-480.298
0.283181
-397.814
0.247118
-329.555
0.218592
-273.087
0.195636
-226.386
0.17695
-187.783
0.161318
-155.899
0.147851
-129.589
0.135923
-107.914
0.124744
-90.0992
0.113981
-75.5044
0.103038
-63.6111
0.091479
-53.9904
0.0789254
-46.3016
0.0648789
-40.2681
0.0489175
-35.6748
0.030604
-32.3597
0.00963809
-30.2025
-0.0141464
-29.1293
-0.0401283
-29.0003
-0.0564926
-23.1575
-0.0649881
-18.4978
-0.0674246
-14.7813
-0.0654622
-11.8133
-0.0606812
-9.44254
-0.0543207
-7.54731
-0.0474375
-6.03164
-0.0407112
-4.82008
-0.0344324
-3.85196
-0.0288053
-3.07863
-0.023959
-2.46033
-0.0199329
-1.96607
-0.0166471
-1.57209
-0.0139915
-1.259
-0.0118558
-1.01085
-0.0101529
-0.814961
-0.00879799
-0.661315
-0.00770235
-0.541991
-0.00679612
-0.450875
-0.00602777
-0.382798
-0.00536176
-0.334723
-0.00476098
-0.30447
-0.290453
-0.00419448
0.900984
-1233.66
0.733393
-1021.39
0.602229
-845.723
0.500648
-700.278
0.422139
-579.892
0.36144
-480.238
0.314446
-397.767
0.277756
-329.518
0.248933
-273.058
0.225862
-226.363
0.207139
-187.765
0.191472
-155.883
0.177907
-129.575
0.165787
-107.902
0.154268
-90.0877
0.142996
-75.4931
0.131336
-63.5995
0.118812
-53.9779
0.105009
-46.2878
0.0893726
-40.2524
0.0714276
-35.6568
0.050659
-32.3389
0.0266937
-30.1785
-0.000724108
-29.1018
-0.0310416
-28.97
-0.0506183
-23.1379
-0.0614404
-18.487
-0.0655115
-14.7772
-0.0646535
-11.814
-0.0605737
-9.44656
-0.0546492
-7.55313
-0.0480121
-6.0382
-0.0414025
-4.82665
-0.0351662
-3.85816
-0.0295422
-3.08423
-0.0246556
-2.4652
-0.0205644
-1.97016
-0.0172059
-1.57545
-0.0144798
-1.26172
-0.012286
-1.01304
-0.0105371
-0.816734
-0.00913822
-0.66276
-0.00799691
-0.543181
-0.00704913
-0.451861
-0.00624594
-0.383632
-0.005551
-0.335453
-0.00492271
-0.305147
-0.291108
-0.00432724
0.962906
-1233.44
0.785408
-1021.22
0.647224
-845.585
0.540902
-700.172
0.459348
-579.811
0.396817
-480.175
0.348827
-397.719
0.311675
-329.481
0.282726
-273.029
0.259695
-226.34
0.241073
-187.746
0.225485
-155.868
0.21191
-129.562
0.199659
-107.89
0.187831
-90.0759
0.17605
-75.4813
0.163639
-63.5871
0.150082
-53.9643
0.134921
-46.2726
0.117541
-40.2351
0.0974082
-35.6367
0.0739205
-32.3155
0.0466214
-30.1512
0.0151471
-29.0703
-0.0200351
-28.9348
-0.0432467
-23.1147
-0.0567369
-18.4735
-0.0627206
-14.7712
-0.063193
-11.8135
-0.0600034
-9.44967
-0.0546688
-7.55837
-0.0483935
-6.04439
-0.0419864
-4.83301
-0.035863
-3.86424
-0.0302883
-3.08977
-0.0253878
-2.47008
-0.0212465
-1.9743
-0.0178215
-1.57886
-0.0150275
-1.2645
-0.0127756
-1.0153
-0.0109752
-0.818571
-0.00952327
-0.664263
-0.00832822
-0.544421
-0.00733301
-0.452893
-0.00648907
-0.384507
-0.00575728
-0.336221
-0.00509177
-0.30586
-0.291798
-0.00445772
1.02844
-1233.2
0.840632
-1021.03
0.695215
-845.44
0.584096
-700.061
0.499557
-579.726
0.435316
-480.111
0.38649
-397.67
0.349059
-329.443
0.32016
-273
0.297334
-226.317
0.278958
-187.728
0.26357
-155.852
0.250079
-129.548
0.237761
-107.877
0.225655
-90.0638
0.213366
-75.469
0.200169
-63.5739
0.185505
-53.9496
0.168871
-46.256
0.149584
-40.2158
0.127046
-35.6141
0.100557
-32.289
0.069566
-30.1202
0.0335855
-29.0343
-0.00702645
-28.8942
-0.0343282
-23.0874
-0.0508543
-18.4569
-0.0590507
-14.763
-0.0610998
-11.8113
-0.0590089
-9.45167
-0.0544321
-7.56283
-0.0486442
-6.05008
-0.042536
-4.83906
-0.0366007
-3.87011
-0.0311228
-3.0952
-0.0262382
-2.47493
-0.0220638
-1.97845
-0.0185801
-1.58233
-0.0157209
-1.26735
-0.0134071
-1.01763
-0.0115434
-0.820481
-0.0100238
-0.665833
-0.00876279
-0.545723
-0.00771013
-0.453979
-0.00681547
-0.385434
-0.00603552
-0.337038
-0.0053209
-0.306622
-0.292532
-0.0046373
1.09783
-1232.94
0.899265
-1020.83
0.74639
-845.287
0.630408
-699.945
0.542932
-579.639
0.477109
-480.045
0.427621
-397.62
0.390091
-329.406
0.361428
-272.971
0.33898
-226.295
0.321001
-187.71
0.30594
-155.837
0.29263
-129.535
0.280312
-107.865
0.267963
-90.0515
0.255164
-75.4562
0.241143
-63.5599
0.225294
-53.9338
0.207065
-46.2377
0.185697
-40.1944
0.160524
-35.5889
0.130736
-32.2592
0.0956736
-30.0851
0.0547097
-28.9934
0.0080681
-28.8475
-0.0238086
-23.0555
-0.0437628
-18.4369
-0.0544935
-14.7522
-0.0583858
-11.8073
-0.05762
-9.45233
-0.0539813
-7.56635
-0.0488171
-6.05513
-0.0431141
-4.84468
-0.0374452
-3.8757
-0.0321148
-3.10047
-0.0272799
-2.47973
-0.0230913
-1.98261
-0.0195574
-1.58584
-0.0166346
-1.27026
-0.0142522
-1.02004
-0.0123117
-0.822471
-0.0107098
-0.667479
-0.00937024
-0.547096
-0.00824829
-0.455131
-0.00729014
-0.386421
-0.00644803
-0.337915
-0.00567017
-0.30744
-0.29332
-0.00492401
1.17135
-1232.67
0.961564
-1020.62
0.800989
-845.126
0.680081
-699.824
0.589727
-579.548
0.522455
-479.978
0.472481
-397.57
0.43505
-329.368
0.406816
-272.943
0.384928
-226.273
0.367506
-187.692
0.352906
-155.823
0.33988
-129.522
0.327633
-107.853
0.315075
-90.039
0.301768
-75.4428
0.286883
-63.545
0.269768
-53.9166
0.249816
-46.2178
0.226187
-40.1708
0.198137
-35.5608
0.164736
-32.2258
0.125204
-30.0455
0.0787558
-28.9469
0.0254544
-28.7942
-0.011507
-23.0185
-0.0353048
-18.4131
-0.0489109
-14.7386
-0.0549316
-11.8012
-0.0557322
-9.45141
-0.0532224
-7.56873
-0.0488289
-6.0594
-0.0436455
-4.84977
-0.0383242
-3.88092
-0.0331961
-3.10552
-0.0284491
-2.48443
-0.0242673
-1.98676
-0.0206919
-1.58939
-0.0177048
-1.27325
-0.0152441
-1.02253
-0.0132125
-0.82455
-0.0115155
-0.669214
-0.0100869
-0.548554
-0.00888508
-0.456363
-0.00785152
-0.387486
-0.00693393
-0.338867
-0.00607928
-0.308333
-0.29418
-0.00525784
1.24927
-1232.38
1.02778
-1020.4
0.859245
-844.958
0.733331
-699.698
0.640151
-579.455
0.571564
-479.909
0.521282
-397.52
0.484151
-329.331
0.456547
-272.916
0.435403
-226.252
0.418704
-187.676
0.404701
-155.809
0.392064
-129.509
0.37996
-107.841
0.367231
-90.0263
0.353414
-75.429
0.337624
-63.5292
0.319158
-53.8982
0.29735
-46.1959
0.27127
-40.1447