/*--------------------------------*- C++ -*----------------------------------*\
| =========                 |                                                 |
| \\      /  F ield         | OpenFOAM: The Open Source CFD Toolbox           |
|  \\    /   O peration     | Version:  2406                                  |
|   \\  /    A nd           | Website:  www.openfoam.com                      |
|    \\/     M anipulation  |                                                 |
\*---------------------------------------------------------------------------*/
FoamFile
{
    version     2.0;
    format      ascii;
    arch        "LSB;label=32;scalar=64";
    class       volVectorField;
    location    "10";
    object      U;
}
// * * * * * * * * * * * * * * * * * * * * * * * * * * * * * * * * * * * * * //

dimensions      [0 1 -1 0 0 0 0];

internalField   nonuniform List<vector> 
38016
(
(52.0589 -0.00533442 8.64457e-26)
(52.0559 -0.0017634 -2.33966e-25)
(52.0587 -0.00216425 2.82588e-25)
(52.0571 -0.00126547 0)
(52.0597 -0.00117582 0)
(52.0581 -0.000889045 0)
(52.0597 -0.000754579 1.62133e-24)
(52.0607 -0.000168664 1.73187e-20)
(52.0635 -0.000205297 -3.42984e-24)
(52.0653 0.000740513 4.13724e-24)
(52.0685 0.00106299 1.25739e-20)
(52.0716 0.0019059 -9.78285e-25)
(52.0737 0.00339056 1.15748e-20)
(52.0755 0.00368188 1.57642e-20)
(52.0793 0.0065071 -1.01672e-20)
(52.0785 0.00800644 0)
(52.0807 0.0114474 0)
(52.0799 0.0165102 0)
(52.0808 0.0224808 1.47935e-23)
(52.0841 0.0336572 -1.69984e-23)
(52.0836 0.0489502 5.99345e-21)
(52.0726 0.0744735 -7.70537e-21)
(52.0536 0.11515 9.7877e-21)
(52.022 0.183621 -4.89687e-23)
(51.9745 0.302079 1.34225e-20)
(51.9424 0.488608 -1.34369e-25)
(51.8859 0.733468 5.45102e-21)
(51.7551 1.03173 -4.95999e-23)
(51.6454 1.36809 -4.51122e-26)
(51.5724 1.73206 0)
(51.4121 2.11211 -9.43078e-27)
(51.324 2.48839 2.10291e-23)
(51.2389 2.85984 -1.25855e-21)
(51.1278 3.22266 0)
(51.0142 3.54926 0)
(51.0214 3.82819 0)
(50.9595 4.10343 0)
(50.6391 4.31393 -1.23961e-21)
(50.73 4.46301 -9.39253e-22)
(50.7908 4.59765 -1.2887e-22)
(50.5395 4.69291 -1.62942e-22)
(50.3092 4.71765 3.31495e-21)
(50.2392 4.66598 -7.36867e-22)
(50.0993 4.60434 9.32698e-22)
(49.9693 4.56861 0)
(49.7927 4.52811 0)
(49.5391 4.47689 -6.54235e-21)
(49.3114 4.39198 5.99439e-21)
(52.0584 -0.00543608 -6.51004e-21)
(52.0565 -0.00180167 -9.12428e-25)
(52.0589 -0.00221833 -2.43462e-20)
(52.0582 -0.00131177 0)
(52.0594 -0.00121871 0)
(52.0591 -0.000933591 3.08077e-20)
(52.0603 -0.000814693 -1.01062e-25)
(52.061 -0.00023257 -1.73209e-20)
(52.0628 -0.000283312 2.54729e-20)
(52.0646 0.000656641 2.39255e-24)
(52.0672 0.000963596 1.24671e-20)
(52.0693 0.00182167 4.49978e-24)
(52.0719 0.00331408 -1.15698e-20)
(52.0736 0.00361525 -1.57561e-20)
(52.077 0.00651791 1.01575e-20)
(52.0778 0.00807622 -2.60505e-20)
(52.0795 0.0116894 -1.70498e-20)
(52.0805 0.0169576 2.25603e-23)
(52.0806 0.023229 3.24015e-24)
(52.0814 0.0349913 -3.39432e-23)
(52.0796 0.0511713 -1.79907e-20)
(52.0711 0.0781389 2.31681e-20)
(52.0571 0.121006 -9.82518e-21)
(52.0323 0.193065 -2.38928e-20)
(51.9927 0.317503 1.37e-20)
(51.9471 0.513589 3.42056e-23)
(51.8819 0.771352 -5.41511e-21)
(51.7814 1.0849 -1.22286e-20)
(51.6826 1.43777 6.06276e-21)
(51.585 1.81948 0)
(51.4663 2.21588 0)
(51.3611 2.60624 4.26983e-22)
(51.2656 2.98962 1.2328e-21)
(51.1562 3.36101 -2.73725e-21)
(51.093 3.68949 0)
(51.0371 3.96783 4.40795e-21)
(50.947 4.24996 0)
(50.7846 4.44667 1.23624e-21)
(50.7391 4.56887 -1.90635e-21)
(50.7138 4.70065 2.37587e-21)
(50.5671 4.79154 -3.39154e-21)
(50.4067 4.78879 -1.13468e-21)
(50.2973 4.71554 -7.3778e-22)
(50.1375 4.63051 9.3882e-22)
(49.9893 4.56939 0)
(49.7974 4.52329 0)
(49.5377 4.47484 -5.01306e-21)
(49.3019 4.39472 6.0747e-21)
(52.058 -0.00554569 -3.61957e-22)
(52.0567 -0.00184435 0)
(52.0587 -0.00227635 4.8362e-20)
(52.0587 -0.00135623 0)
(52.0592 -0.00126506 0)
(52.0597 -0.000984476 -3.08076e-20)
(52.0605 -0.000871496 8.04601e-25)
(52.0614 -0.000293967 -1.26709e-24)
(52.0628 -0.00035773 -2.5473e-20)
(52.0642 0.000579914 2.3847e-24)
(52.0664 0.000871889 -2.50541e-20)
(52.0681 0.00173937 -3.48614e-20)
(52.0706 0.0032379 4.58632e-20)
(52.0723 0.00354917 3.04395e-23)
(52.0754 0.00652032 -1.91017e-23)
(52.0771 0.00813737 2.60361e-20)
(52.0788 0.0119281 1.70475e-20)
(52.0806 0.0174231 -2.10168e-24)
(52.0801 0.0240578 2.63053e-23)
(52.0789 0.0364549 0)
(52.0756 0.0535153 3.61039e-20)
(52.0686 0.0819405 -1.54622e-20)
(52.0568 0.127061 1.98624e-20)
(52.0356 0.202799 4.79124e-20)
(51.9995 0.333424 2.53194e-22)
(51.9472 0.539201 0)
(51.8775 0.809432 -2.20682e-20)
(51.798 1.13785 1.21306e-20)
(51.7072 1.50726 -6.00552e-21)
(51.6013 1.90562 0)
(51.5064 2.31726 -9.79936e-24)
(51.4014 2.72117 2.50767e-22)
(51.3035 3.11493 3.12531e-22)
(51.2063 3.49233 2.02814e-21)
(51.1571 3.82398 -4.54666e-21)
(51.0384 4.10142 -4.40265e-21)
(50.9583 4.37822 0)
(50.9401 4.57021 -4.85261e-21)
(50.7742 4.68139 1.89538e-21)
(50.6621 4.7939 -2.36125e-21)
(50.5788 4.86788 6.92183e-21)
(50.482 4.85475 -4.35294e-21)
(50.3358 4.77161 7.54387e-21)
(50.1724 4.66783 -1.46259e-21)
(49.9995 4.59734 4.87929e-22)
(49.7763 4.55719 -1.36817e-20)
(49.515 4.51665 7.20284e-24)
(49.2804 4.44538 -1.28636e-20)
(52.058 -0.00566142 2.13897e-20)
(52.0567 -0.00188718 0)
(52.0586 -0.00233666 -2.40109e-20)
(52.0587 -0.00140256 -4.76506e-24)
(52.0592 -0.00131372 -7.87746e-20)
(52.0596 -0.00103477 2.14834e-24)
(52.0604 -0.000930539 4.67464e-20)
(52.0614 -0.000358158 0)
(52.0628 -0.000435371 5.0505e-20)
(52.0642 0.000498947 0)
(52.0664 0.000773008 -4.97655e-20)
(52.0682 0.00165037 3.48696e-20)
(52.0707 0.00315431 -4.58632e-20)
(52.0724 0.00347467 -1.44416e-23)
(52.0755 0.00651745 -4.0221e-20)
(52.0772 0.00819518 -5.18227e-20)
(52.0788 0.0121699 3.47184e-23)
(52.0806 0.0179013 -4.08908e-23)
(52.0801 0.0249077 0)
(52.0789 0.0379556 3.69425e-20)
(52.0757 0.0559184 -4.83233e-20)
(52.069 0.0858378 3.13059e-20)
(52.0576 0.13327 -5.97326e-20)
(52.0372 0.212775 -2.41698e-20)
(52.0026 0.349666 -2.71577e-20)
(51.9527 0.565171 -1.40016e-22)
(51.8861 0.847843 -1.11367e-22)
(51.8091 1.19102 2.51954e-20)
(51.7225 1.57663 -1.27627e-20)
(51.6246 1.99119 0)
(51.5341 2.41776 0)
(51.4334 2.83461 -1.36854e-22)
(51.3455 3.23826 -2.23148e-21)
(51.2541 3.62128 0)
(51.2057 3.95675 5.0857e-21)
(51.0974 4.23427 0)
(51.0127 4.50515 0)
(50.9877 4.6944 4.84401e-21)
(50.8462 4.79913 -3.23715e-21)
(50.7306 4.89786 -4.9793e-21)
(50.6208 4.95826 6.43982e-21)
(50.5213 4.93984 4.45921e-21)
(50.3726 4.85952 1.2064e-20)
(50.1934 4.75063 -1.44768e-20)
(49.9986 4.68618 0)
(49.7565 4.66548 -2.13988e-24)
(49.5018 4.64026 -2.81131e-20)
(49.2785 4.58054 2.78828e-20)
(52.058 -0.00578238 -1.45187e-20)
(52.0567 -0.00193232 3.47071e-24)
(52.0586 -0.00239988 -4.67826e-20)
(52.0587 -0.00145094 4.65308e-20)
(52.0592 -0.00136411 7.87748e-20)
(52.0596 -0.00108725 6.06296e-20)
(52.0604 -0.000992031 4.62493e-20)
(52.0614 -0.000424499 0)
(52.0628 -0.00051585 -5.05068e-20)
(52.0642 0.00041514 1.01885e-24)
(52.0664 0.000670709 4.97534e-20)
(52.0682 0.00155825 7.95594e-24)
(52.0706 0.00306771 0)
(52.0723 0.00339647 -1.58525e-23)
(52.0755 0.00651437 4.02398e-20)
(52.0772 0.00825247 5.18219e-20)
(52.0788 0.012417 3.39194e-20)
(52.0807 0.0183923 -4.33132e-20)
(52.0802 0.025777 0)
(52.0792 0.0394933 -7.40001e-20)
(52.0761 0.0583765 2.42169e-20)
(52.0697 0.0898136 -3.13698e-20)
(52.0587 0.139591 8.01738e-20)
(52.0391 0.222907 1.01421e-22)
(52.0062 0.366108 -1.01878e-22)
(51.9587 0.591369 -1.41691e-22)
(51.8954 0.886458 4.53225e-20)
(51.8229 1.24428 -2.53935e-20)
(51.7414 1.64591 -3.03369e-22)
(51.649 2.0764 0)
(51.5644 2.5177 3.35923e-23)
(51.4699 2.94726 -6.45916e-22)
(51.389 3.36072 2.22929e-21)
(51.3027 3.74942 0)
(51.2545 4.08936 0)
(51.159 4.36799 -8.39116e-21)
(51.0735 4.6331 3.58302e-21)
(51.0429 4.82203 -4.47489e-21)
(50.9143 4.92536 -4.53282e-22)
(50.7923 5.01523 9.20619e-21)
(50.6692 5.06664 -6.61847e-21)
(50.5555 5.04839 -8.85897e-21)
(50.3993 4.97884 -2.39288e-20)
(50.2137 4.87737 3.23752e-20)
(50.003 4.83533 3.78054e-20)
(49.7506 4.84214 -4.31469e-20)
(49.5069 4.83311 -3.19839e-21)
(49.3027 4.78185 -3.52519e-21)
(52.058 -0.00590899 0)
(52.0567 -0.00197966 0)
(52.0586 -0.00246574 4.67748e-20)
(52.0587 -0.00150115 -4.65264e-20)
(52.0592 -0.00141635 0)
(52.0596 -0.0011415 -6.06301e-20)
(52.0604 -0.00105551 -9.30027e-20)
(52.0614 -0.000492651 3.83001e-24)
(52.0628 -0.000598835 0)
(52.0642 0.000329242 0)
(52.0664 0.000565732 9.88114e-20)
(52.0682 0.00146401 0)
(52.0706 0.00297992 0)
(52.0723 0.00331664 6.1933e-20)
(52.0755 0.00651412 7.99709e-20)
(52.0772 0.00831369 -5.15335e-20)
(52.0788 0.0126748 -3.38847e-20)
(52.0807 0.0189037 8.65149e-20)
(52.0804 0.0266755 5.26745e-23)
(52.0795 0.0410793 3.69801e-20)
(52.0765 0.0609024 -4.87954e-20)
(52.0705 0.0938805 0)
(52.06 0.146025 -4.01878e-20)
(52.0412 0.233175 0)
(52.01 0.382679 0)
(51.9651 0.617645 1.43427e-22)
(51.9055 0.92503 -6.86912e-20)
(51.8376 1.2973 2.60458e-20)
(51.7618 1.71466 1.30542e-20)
(51.6755 2.16071 0)
(51.5974 2.61635 3.86102e-21)
(51.5092 3.05814 5.28186e-23)
(51.4355 3.48103 -4.40716e-21)
(51.3551 3.87518 -3.72637e-21)
(51.3078 4.21948 -2.49546e-21)
(51.2238 4.49979 1.84146e-20)
(51.1373 4.75943 -3.53524e-21)
(51.0995 4.94868 4.41543e-21)
(50.9804 5.05415 6.80787e-21)
(50.8512 5.13934 -1.50125e-20)
(50.7195 5.18556 1.92006e-20)
(50.59 5.17177 1.82907e-20)
(50.4238 5.11799 -2.79094e-20)
(50.2329 5.03081 -3.66861e-21)
(50.0159 5.01877 3.75317e-20)
(49.7664 5.05504 -4.0092e-20)
(49.5389 5.06026 3.19414e-21)
(49.3592 5.01191 3.52088e-21)
(52.058 -0.00604132 -2.03353e-24)
(52.0567 -0.00202927 0)
(52.0586 -0.00253427 -4.55466e-20)
(52.0587 -0.00155317 9.28105e-24)
(52.0592 -0.00147037 -1.09683e-23)
(52.0596 -0.00119745 2.17011e-23)
(52.0604 -0.00112084 9.19971e-20)
(52.0614 -0.000562388 -1.35185e-19)
(52.0628 -0.000684022 0)
(52.0642 0.000241655 1.41636e-19)
(52.0664 0.00045867 -9.88154e-20)
(52.0682 0.00136832 -8.85314e-24)
(52.0706 0.00289204 1.06501e-23)
(52.0723 0.00323641 -6.19349e-20)
(52.0755 0.0065183 -7.99525e-20)
(52.0772 0.00838115 5.14835e-20)
(52.0789 0.0129456 3.15981e-23)
(52.0808 0.0194393 -4.3243e-20)
(52.0805 0.0276076 -5.26941e-23)
(52.0798 0.0427191 0)
(52.0769 0.0635032 4.89873e-20)
(52.0714 0.0980454 6.36414e-20)
(52.0612 0.152573 0)
(52.0434 0.243558 0)
(52.014 0.399319 -2.28118e-22)
(51.9718 0.643861 2.86122e-22)
(51.9161 0.963316 4.58673e-20)
(51.8534 1.34969 -2.60368e-20)
(51.7836 1.78237 -1.79892e-22)
(51.7039 2.24344 3.68117e-22)
(51.6327 2.71284 -4.13077e-21)
(51.5512 3.16619 6.01242e-23)
(51.4846 3.59786 3.86421e-21)
(51.4104 3.99695 9.92126e-21)
(51.3644 4.34498 0)
(51.2907 4.62716 -8.19251e-21)
(51.204 4.88182 -3.47625e-21)
(51.1574 5.07147 1.35886e-20)
(51.0427 5.1814 -1.34926e-20)
(50.9086 5.26504 9.40402e-21)
(50.7713 5.30984 0)
(50.6269 5.30448 4.35505e-21)
(50.4518 5.26881 6.72964e-23)
(50.259 5.19836 -2.98662e-20)
(50.0432 5.21821 7.66906e-20)
(49.805 5.28272 2.26588e-21)
(49.5981 5.29856 -4.91289e-20)
(49.4474 5.24635 6.84998e-21)
(52.058 -0.00617949 3.51685e-20)
(52.0567 -0.00208118 2.68524e-20)
(52.0586 -0.00260554 -4.4291e-20)
(52.0587 -0.00160703 -9.11899e-20)
(52.0592 -0.00152619 2.67864e-24)
(52.0596 -0.00125512 -1.3164e-23)
(52.0604 -0.00118804 -1.83512e-19)
(52.0614 -0.000633724 1.35192e-19)
(52.0628 -0.000771434 -2.24701e-24)
(52.0642 0.000152385 -1.41644e-19)
(52.0664 0.00034954 0)
(52.0682 0.00127118 1.37165e-19)
(52.0706 0.00280424 1.18665e-23)
(52.0723 0.00315589 -1.42488e-23)
(52.0755 0.00652712 -2.03063e-23)
(52.0772 0.00845526 -1.02458e-19)
(52.0789 0.0132293 -3.45657e-23)
(52.0809 0.0199994 4.07093e-23)
(52.0807 0.0285731 0)
(52.0801 0.0444113 0)
(52.0774 0.0661759 0)
(52.0723 0.102301 -6.38917e-20)
(52.0626 0.159217 -2.6954e-23)
(52.0457 0.254022 5.0254e-20)
(52.0182 0.415951 0)
(51.9789 0.669872 0)
(51.9274 1.00108 0)
(51.8702 1.40113 -2.69854e-20)
(51.8068 1.84859 2.81328e-20)
(51.7342 2.32401 -1.34327e-20)
(51.6703 2.80649 -4.05392e-21)
(51.5958 3.27065 1.55857e-22)
(51.5361 3.71038 3.17613e-21)
(51.4684 4.11383 -4.86864e-21)
(51.4241 4.46489 0)
(51.3592 4.74912 0)
(51.2727 4.99971 -5.38401e-21)
(51.216 5.1901 -8.68161e-21)
(51.1021 5.30608 6.68507e-21)
(50.9656 5.39071 -9.3908e-21)
(50.824 5.4381 2.67218e-20)
(50.6678 5.44484 -6.83754e-20)
(50.4872 5.42802 4.88525e-20)
(50.2971 5.37392 0)
(50.0877 5.42414 -7.32476e-20)
(49.8662 5.51373 8.35658e-20)
(49.6833 5.53603 6.12137e-21)
(49.5641 5.47323 -6.84545e-21)
(52.058 -0.00632361 -7.18686e-20)
(52.0568 -0.00213547 -2.68543e-20)
(52.0586 -0.0026796 8.98323e-20)
(52.0587 -0.00166279 9.11984e-20)
(52.0592 -0.00158387 0)
(52.0596 -0.00131457 -8.3642e-24)
(52.0604 -0.00125719 -9.04963e-20)
(52.0614 -0.000706754 0)
(52.0628 -0.000861196 1.97511e-19)
(52.0642 6.13005e-05 0)
(52.0664 0.000238227 -3.25764e-24)
(52.0682 0.00117239 -1.37168e-19)
(52.0706 0.00271641 0)
(52.0723 0.00307485 0)
(52.0755 0.0065404 -2.02478e-23)
(52.0773 0.00853587 1.02537e-19)
(52.079 0.0135251 -3.14561e-23)
(52.081 0.0205831 8.64228e-20)
(52.0809 0.0295699 0)
(52.0805 0.0461514 0)
(52.078 0.0689133 0)
(52.0733 0.106633 1.38467e-22)
(52.0641 0.165932 -1.48237e-22)
(52.0482 0.264518 -5.00701e-20)
(52.0227 0.432489 0)
(51.9865 0.695523 0)
(51.9395 1.03808 -4.74625e-20)
(51.8881 1.45127 5.40203e-20)
(51.8316 1.91289 7.62213e-22)
(51.7665 2.40193 1.31248e-20)
(51.7102 2.89673 4.55141e-21)
(51.6429 3.37094 -8.42337e-22)
(51.59 3.818 -3.41804e-21)
(51.529 4.22532 0)
(51.4868 4.57881 0)
(51.4288 4.86535 1.93669e-20)
(51.3425 5.11326 -5.14159e-21)
(51.2751 5.30514 -9.05372e-21)
(51.1601 5.42816 1.28435e-20)
(51.0232 5.51611 9.03238e-21)
(50.8777 5.57007 -2.62269e-20)
(50.7139 5.59155 3.22568e-20)
(50.533 5.59289 0)
(50.3499 5.5535 0)
(50.1503 5.63098 -1.30359e-20)
(49.9478 5.74082 0)
(49.7905 5.76491 -1.20983e-20)
(49.703 5.6858 0)
(52.058 -0.00647381 3.66971e-20)
(52.0568 -0.00219222 0)
(52.0586 -0.00275656 8.73828e-20)
(52.0587 -0.0017205 8.99332e-20)
(52.0592 -0.00164348 1.50776e-19)
(52.0596 -0.00137588 1.66368e-23)
(52.0604 -0.00132838 3.63001e-19)
(52.0614 -0.000781575 2.41981e-23)
(52.0628 -0.000953436 -1.97521e-19)
(52.0642 -3.17219e-05 -7.99045e-24)
(52.0664 0.000124628 -1.94786e-19)
(52.0682 0.00107173 0)
(52.0706 0.00262848 0)
(52.0723 0.00299306 0)
(52.0755 0.00655792 7.90446e-20)
(52.0773 0.00862284 -1.01926e-19)
(52.079 0.013832 6.72683e-20)
(52.0811 0.0211893 -8.64712e-20)
(52.0812 0.0305956 5.27518e-23)
(52.0809 0.0479346 0)
(52.0786 0.0717068 -1.06403e-22)
(52.0744 0.111027 1.17204e-22)
(52.0658 0.172688 0)
(52.0508 0.274994 1.01702e-19)
(52.0274 0.448838 -2.35403e-22)
(51.9944 0.720652 2.95191e-22)
(51.9522 1.07407 4.78028e-20)
(51.9071 1.49976 5.34513e-22)
(51.8579 1.97483 -2.8471e-20)
(51.8008 2.47667 -1.46838e-20)
(51.7523 2.98303 -1.72725e-22)
(51.6925 3.46651 1.05833e-21)
(51.646 3.9202 0)
(51.592 4.33093 0)
(51.5521 4.68641 -8.3702e-21)
(51.4989 4.97573 -1.49846e-20)
(51.4124 5.22264 1.18453e-20)
(51.335 5.41694 8.62898e-21)
(51.2186 5.54756 -3.01107e-22)
(51.0823 5.64116 -1.78358e-20)
(50.9332 5.70503 2.56691e-20)
(50.7666 5.74206 2.57817e-21)
(50.5905 5.75968 -3.09676e-20)
(50.418 5.73297 -6.77697e-21)
(50.2304 5.83422 8.62884e-21)
(50.0475 5.95887 -8.40447e-20)
(49.9152 5.97993 1.94655e-19)
(49.8576 5.88033 -1.01248e-19)
(52.058 -0.00663021 7.29599e-25)
(52.0568 -0.00225149 4.87487e-20)
(52.0586 -0.00283647 -1.73514e-19)
(52.0587 -0.00178021 -8.99403e-20)
(52.0592 -0.00170507 -1.50786e-19)
(52.0596 -0.00143912 -1.29205e-23)
(52.0604 -0.0014017 -1.81011e-19)
(52.0614 -0.000858281 -1.49525e-23)
(52.0628 -0.00104828 6.59701e-24)
(52.0642 -0.000126808 -7.95855e-24)
(52.0664 8.63918e-06 7.16622e-22)
(52.0682 0.000968965 -2.43566e-25)
(52.0706 0.00254034 0)
(52.0723 0.00291028 1.21794e-19)
(52.0755 0.00657944 -7.90309e-20)
(52.0774 0.00871605 1.01905e-19)
(52.0791 0.0141487 -6.72407e-20)
(52.0812 0.0218167 -8.6329e-20)
(52.0815 0.0316475 -6.0292e-23)
(52.0814 0.0497549 -1.12023e-23)
(52.0792 0.0745474 -1.61853e-23)
(52.0755 0.115464 -6.50223e-20)
(52.0675 0.179454 -1.50095e-22)
(52.0536 0.285397 -1.017e-19)
(52.0323 0.464902 0)
(52.0027 0.745094 3.05763e-22)
(51.9656 1.1088 -3.83508e-22)
(51.9272 1.54627 2.95163e-20)
(51.8857 2.03398 -5.07387e-22)
(51.8369 2.54774 -5.88902e-22)
(51.7965 3.06484 -1.14821e-20)
(51.7442 3.55683 1.88622e-21)
(51.7042 4.01647 1.1524e-22)
(51.657 4.43024 -9.1005e-21)
(51.6195 4.78752 1.00532e-20)
(51.569 5.08021 0)
(51.4817 5.3279 0)
(51.396 5.52548 8.13595e-21)
(51.279 5.66406 -1.14397e-20)
(51.1435 5.76566 2.16901e-21)
(50.9921 5.84164 -5.96417e-20)
(50.8275 5.89305 3.08092e-20)
(50.6602 5.92431 -1.06066e-20)
(50.5002 5.90825 6.77134e-21)
(50.326 6.02983 6.83267e-20)
(50.1622 6.16415 -7.80364e-20)
(50.053 6.17769 0)
(50.0225 6.05414 -1.0138e-19)
(52.058 -0.00679292 -8.25179e-20)
(52.0568 -0.00231336 4.54282e-20)
(52.0586 -0.00291943 8.61393e-20)
(52.0587 -0.00184199 -1.77357e-19)
(52.0592 -0.00176871 1.59744e-23)
(52.0596 -0.00150436 2.33354e-19)
(52.0604 -0.00147722 0)
(52.0614 -0.000936967 -2.64325e-19)
(52.0628 -0.00114584 -1.94832e-19)
(52.0642 -0.000224083 -1.39108e-19)
(52.0664 -0.000109815 3.87456e-19)
(52.0682 0.000863941 1.94185e-24)
(52.0707 0.00245189 0)
(52.0723 0.00282626 -2.43226e-19)
(52.0755 0.00660464 -1.57207e-19)
(52.0774 0.00881531 -1.01357e-19)
(52.0793 0.0144738 3.12497e-23)
(52.0814 0.022464 8.6335e-20)
(52.0818 0.0327225 0)
(52.0819 0.0516061 -8.07914e-23)
(52.08 0.0774247 9.11209e-23)
(52.0768 0.119927 6.5142e-20)
(52.0694 0.186196 1.51019e-22)
(52.0566 0.295668 -2.15361e-22)
(52.0375 0.480581 5.95307e-20)
(52.0114 0.76868 7.94718e-20)
(51.9796 1.14201 -4.91469e-20)
(51.9483 1.59044 -1.15331e-19)
(51.9149 2.08991 -8.46257e-22)
(51.8749 2.61465 1.50697e-20)
(51.8427 3.14165 1.24113e-20)
(51.7981 3.6414 6.32397e-22)
(51.7644 4.10634 3.71257e-21)
(51.7239 4.52288 7.73931e-21)
(51.6885 4.88205 -4.72777e-21)
(51.6386 5.17885 2.70395e-20)
(51.5504 5.42893 1.30345e-20)
(51.4589 5.63045 -1.5724e-20)
(51.3423 5.77743 1.21611e-20)
(51.2075 5.88911 2.77407e-20)
(51.0563 5.97778 -8.13026e-20)
(50.898 6.04109 5.99178e-20)
(50.7418 6.08333 -8.42141e-20)
(50.595 6.07591 2.14496e-19)
(50.4345 6.21437 -1.25841e-19)
(50.289 6.35414 0)
(50.2006 6.35681 -1.91318e-19)
(50.1935 6.20735 1.95711e-19)
(52.0579 -0.00696207 8.25196e-20)
(52.0568 -0.00237791 -1.39619e-19)
(52.0586 -0.00300552 8.37113e-20)
(52.0587 -0.00190588 3.53406e-19)
(52.0592 -0.00183447 0)
(52.0596 -0.00157168 -2.33362e-19)
(52.0604 -0.00155503 0)
(52.0614 -0.00101773 2.64334e-19)
(52.0628 -0.00124624 1.94826e-19)
(52.0642 -0.000323672 1.39129e-19)
(52.0664 -0.000230802 -3.86052e-19)
(52.0682 0.000756506 -1.34932e-19)
(52.0707 0.00236298 1.77389e-19)
(52.0724 0.0027407 1.21418e-19)
(52.0756 0.00663311 1.57201e-19)
(52.0775 0.00892039 1.01363e-19)
(52.0794 0.0148059 0)
(52.0817 0.0231293 0)
(52.0822 0.0338173 6.05721e-23)
(52.0825 0.0534812 7.59478e-20)
(52.0808 0.080328 -1.00858e-19)
(52.0782 0.124397 0)
(52.0714 0.192882 0)
(52.0597 0.305751 0)
(52.0428 0.495776 -1.18684e-19)
(52.0205 0.791242 -1.6169e-19)
(51.9943 1.17345 4.99114e-20)
(51.9705 1.63194 5.82172e-20)
(51.9456 2.1422 0)
(51.9146 2.67694 0)
(51.8907 3.21299 5.19455e-22)
(51.854 3.71977 -3.25737e-21)
(51.8264 4.18943 -3.70821e-21)
(51.7924 4.60861 2.3692e-21)
(51.7585 4.97003 -1.00268e-20)
(51.7077 5.2717 -1.32506e-20)
(51.6192 5.5254 -4.20462e-22)
(51.5244 5.7314 -1.61821e-20)
(51.4089 5.88737 0)
(51.2751 6.01037 6.74069e-20)
(51.1275 6.1107 -5.40316e-20)
(50.9788 6.183 0)
(50.8345 6.23408 0)
(50.7004 6.23326 -6.3854e-21)
(50.5532 6.38498 0)
(50.4246 6.52689 -9.16252e-21)
(50.3544 6.51699 1.08834e-20)
(50.3673 6.34178 -5.91557e-21)
(52.0579 -0.00713777 -8.85744e-20)
(52.0569 -0.00244524 1.65691e-21)
(52.0586 -0.00309482 8.12472e-20)
(52.0587 -0.00197194 -3.50896e-19)
(52.0592 -0.0019024 1.46329e-19)
(52.0596 -0.00164114 2.53549e-23)
(52.0604 -0.00163522 0)
(52.0614 -0.00110066 -1.80119e-23)
(52.0628 -0.00134961 2.17381e-23)
(52.0643 -0.000425697 0)
(52.0664 -0.000354379 7.02748e-22)
(52.0682 0.000646492 1.34941e-19)
(52.0707 0.00227358 -1.77404e-19)
(52.0724 0.00265323 2.41257e-19)
(52.0757 0.00666433 0)
(52.0777 0.00903098 0)
(52.0796 0.0151431 0)
(52.0819 0.0238105 0)
(52.0826 0.0349282 -6.0718e-23)
(52.0832 0.0553725 -7.59566e-20)
(52.0818 0.0832454 2.02171e-19)
(52.0797 0.128853 1.42787e-22)
(52.0735 0.199475 -1.5285e-22)
(52.063 0.315585 1.04754e-19)
(52.0485 0.510386 5.98576e-20)
(52.0299 0.812616 1.629e-19)
(52.0097 1.20289 -7.69794e-22)
(51.9936 1.67044 9.65189e-22)
(51.9775 2.19046 -3.31648e-20)
(51.9559 2.73417 0)
(51.9405 3.2784 0)
(51.9117 3.79153 4.06249e-21)
(51.8903 4.26538 -9.46811e-23)
(51.8621 4.68723 -2.18651e-21)
(51.8291 5.05153 2.29281e-20)
(51.7768 5.35872 -1.19652e-20)
(51.689 5.61681 -1.02439e-20)
(51.5932 5.82783 1.67351e-20)
(51.4788 5.9934 -5.58509e-20)
(51.3473 6.12778 -3.51612e-20)
(51.2067 6.23747 7.00717e-21)
(51.0692 6.31617 1.30694e-19)
(50.9362 6.37468 -7.36341e-20)
(50.814 6.37862 1.11429e-19)
(50.679 6.54016 -1.17098e-19)
(50.565 6.68169 -1.28512e-19)
(50.5102 6.65829 1.61094e-19)
(50.5396 6.45796 0)
(52.0579 -0.00732015 1.80172e-19)
(52.0569 -0.00251542 8.58873e-20)
(52.0586 -0.0031874 -1.64912e-19)
(52.0587 -0.00204025 1.2848e-21)
(52.0592 -0.00197258 -1.46335e-19)
(52.0596 -0.00171283 -2.51933e-23)
(52.0604 -0.00171787 0)
(52.0614 -0.00118586 -2.60776e-19)
(52.0628 -0.00145606 -2.59708e-23)
(52.0643 -0.000530283 3.13307e-23)
(52.0665 -0.00048059 1.91993e-19)
(52.0682 0.00053373 -1.10671e-23)
(52.0708 0.00218371 1.7625e-19)
(52.0725 0.00256345 -7.66939e-22)
(52.0758 0.00669763 -1.56011e-19)
(52.0778 0.00914662 -2.61804e-23)
(52.0799 0.0154833 3.1066e-23)
(52.0823 0.0245052 0)
(52.0831 0.0360512 -6.08694e-23)
(52.084 0.057272 -1.17927e-23)
(52.0828 0.0861649 -1.01225e-19)
(52.0813 0.133274 0)
(52.0758 0.20594 8.58254e-20)
(52.0664 0.325111 -2.09817e-19)
(52.0543 0.524312 -4.43247e-22)
(52.0396 0.832642 -8.19038e-20)
(52.0256 1.23008 5.21633e-20)
(52.0177 1.70564 -8.90863e-22)
(52.0107 2.23433 1.08402e-21)
(51.9988 2.78595 -1.1776e-21)
(51.9919 3.33748 -6.52992e-22)
(51.9713 3.8563 -7.89601e-21)
(51.956 4.33396 -7.28225e-22)
(51.9328 4.75868 -1.99479e-21)
(51.9003 5.12659 -1.06224e-20)
(51.8467 5.43972 2.32135e-20)
(51.7609 5.70264 9.31041e-21)
(51.6655 5.91929 0)
(51.5525 6.09484 4.47293e-22)
(51.4249 6.23939 1.54738e-20)
(51.2935 6.35566 0)
(51.1672 6.43895 -1.4243e-20)
(51.0444 6.50399 8.92511e-21)
(50.9329 6.51116 -1.18477e-20)
(50.8085 6.67988 0)
(50.7067 6.81971 -8.78512e-21)
(50.6645 6.78277 0)
(50.7071 6.55878 0)
(52.0579 -0.00750932 -9.15983e-20)
(52.0569 -0.00258856 -8.26035e-20)
(52.0586 -0.00328337 1.60057e-19)
(52.0587 -0.00211085 -1.70954e-19)
(52.0592 -0.00204507 0)
(52.0596 -0.00178681 0)
(52.0604 -0.00180307 -3.5022e-19)
(52.0614 -0.00127343 2.60787e-19)
(52.0628 -0.00156571 0)
(52.0643 -0.000637553 1.82054e-23)
(52.0665 -0.000609467 -2.19497e-23)
(52.0683 0.000418046 2.67319e-19)
(52.0708 0.00209345 -1.7626e-19)
(52.0726 0.0024712 -2.40525e-19)
(52.0759 0.00673219 3.76655e-22)
(52.078 0.00926671 0)
(52.0801 0.0158242 0)
(52.0827 0.0252105 -4.54268e-23)
(52.0837 0.0371817 5.29435e-23)
(52.0849 0.0591709 1.53654e-19)
(52.084 0.0890736 -9.25516e-23)
(52.083 0.13764 0)
(52.0782 0.212241 -1.71814e-19)
(52.0701 0.33427 1.05128e-19)
(52.0603 0.53746 0)
(52.0497 0.851169 0)
(52.0421 1.25482 -5.2951e-20)
(52.0427 1.73725 6.40835e-20)
(52.0451 2.27347 3.40975e-20)
(52.0432 2.83192 0)
(52.045 3.38988 0)
(52.0327 3.91377 -7.86539e-22)
(52.0234 4.39498 1.76672e-21)
(52.0045 4.82295 -1.30247e-21)
(51.9724 5.19518 1.10543e-20)
(51.9185 5.51439 -7.16255e-22)
(51.8359 5.78239 -2.97226e-20)
(51.7415 6.00542 1.19394e-20)
(51.6304 6.19069 -3.36234e-20)
(51.5088 6.34327 1.30587e-19)
(51.3875 6.4637 -7.62333e-20)
(51.271 6.55066 0)
(51.1568 6.62143 -8.91453e-21)
(51.0545 6.63029 0)
(50.9393 6.80412 2.38374e-19)
(50.8477 6.94193 -2.5699e-19)
(50.8157 6.89249 0)
(50.8689 6.64709 0)
(52.0579 -0.0077054 0)
(52.0569 -0.00266476 4.04708e-20)
(52.0586 -0.0033828 -2.43741e-21)
(52.0587 -0.00218381 3.44527e-19)
(52.0592 -0.00211995 2.86122e-19)
(52.0596 -0.00186318 -2.26838e-19)
(52.0604 -0.00189092 3.50236e-19)
(52.0614 -0.00136346 3.55322e-23)
(52.0628 -0.00167867 -3.80829e-19)
(52.0643 -0.000747629 2.73403e-19)
(52.0665 -0.000741025 -3.48966e-24)
(52.0683 0.000299269 -2.67295e-19)
(52.0709 0.00200286 -1.15214e-23)
(52.0727 0.00237638 -2.39051e-19)
(52.0761 0.00676734 1.5566e-19)
(52.0782 0.00939043 2.00203e-19)
(52.0805 0.016163 -1.54839e-23)
(52.0831 0.025923 0)
(52.0844 0.0383148 0)
(52.0859 0.06106 -1.53691e-19)
(52.0852 0.0919585 9.29253e-23)
(52.0849 0.141929 2.90603e-22)
(52.0808 0.218344 8.6051e-20)
(52.0738 0.343007 1.06915e-19)
(52.0665 0.549739 -5.05893e-22)
(52.06 0.868057 6.3386e-22)
(52.0592 1.27691 5.37019e-20)
(52.0685 1.76503 -6.11899e-20)
(52.0807 2.30759 -2.34527e-21)
(52.0889 2.87176 -1.69107e-20)
(52.0996 3.43529 -2e-20)
(52.0958 3.96372 6.27008e-21)
(52.0924 4.44836 -9.56691e-22)
(52.0771 4.88002 3.17251e-21)
(52.0458 5.25717 -1.50099e-20)
(51.9933 5.58234 -2.25799e-20)
(51.9147 5.85568 1.22948e-20)
(51.8214 6.08575 5.05447e-20)
(51.7132 6.27974 0)
(51.599 6.43776 -1.41571e-20)
(51.4876 6.56072 8.88135e-20)
(51.3791 6.65132 -8.55445e-20)
(51.2718 6.72704 -1.45018e-19)
(51.1773 6.73619 1.64427e-19)
(51.0696 6.91354 -1.33944e-20)
(50.9859 7.04946 0)
(50.9621 6.98845 8.66741e-21)
(51.0239 6.72357 3.21161e-19)
(52.0579 -0.0079085 0)
(52.057 -0.00274411 0)
(52.0586 -0.00348579 -1.57596e-19)
(52.0587 -0.00225919 -1.69708e-19)
(52.0592 -0.00219728 -2.86127e-19)
(52.0596 -0.001942 1.32164e-21)
(52.0604 -0.0019815 0)
(52.0615 -0.00145607 0)
(52.0628 -0.00179507 3.80774e-19)
(52.0643 -0.00086064 -9.2614e-22)
(52.0666 -0.000875274 3.78553e-19)
(52.0684 0.000177229 3.04543e-23)
(52.071 0.00191199 1.74678e-19)
(52.0729 0.00227876 6.78305e-22)
(52.0763 0.00680286 0)
(52.0785 0.0095172 -4.22101e-22)
(52.0809 0.0164967 -1.32864e-23)
(52.0837 0.0266386 2.02021e-23)
(52.0852 0.0394452 6.13726e-23)
(52.0869 0.0629295 -1.53252e-22)
(52.0867 0.0948061 9.33089e-23)
(52.0869 0.14612 -1.35944e-19)
(52.0835 0.224216 8.7495e-20)
(52.0778 0.351267 1.10072e-21)
(52.073 0.561065 6.19978e-20)
(52.0707 0.88318 8.55053e-20)
(52.0768 1.29617 2.43443e-21)
(52.0951 1.78875 3.07599e-20)
(52.1173 2.33645 0)
(52.136 2.90523 3.85188e-20)
(52.156 3.47346 1.5761e-20)
(52.1608 4.00595 2.19844e-21)
(52.163 4.49407 -2.72576e-21)
(52.1509 4.92991 -2.73851e-21)
(52.1215 5.31229 -5.35274e-21)
(52.0721 5.64317 -2.01615e-20)
(51.9976 5.92224 -2.05591e-20)
(51.9058 6.15969 9.83325e-21)
(51.8017 6.3607 3.96801e-20)
(51.6956 6.52177 -1.04824e-19)
(51.5924 6.64657 5.94636e-20)
(51.4901 6.74108 8.76702e-20)
(51.3884 6.82097 -9.85486e-20)
(51.3003 6.82955 -1.64382e-19)
(51.1984 7.00963 2.05461e-19)
(51.1208 7.14421 7.19156e-21)
(51.1034 7.07259 -8.65731e-21)
(51.1717 6.79025 -3.04575e-19)
(52.0579 -0.00811873 -1.03642e-19)
(52.057 -0.00282674 -1.97454e-23)
(52.0586 -0.00359242 2.58079e-23)
(52.0587 -0.00233708 5.06458e-19)
(52.0592 -0.00227715 -2.8176e-19)
(52.0596 -0.00202336 2.25458e-19)
(52.0604 -0.00207491 -9.42993e-24)
(52.0615 -0.00155135 2.22869e-23)
(52.0629 -0.00191501 4.24938e-23)
(52.0644 -0.000976716 -9.03826e-22)
(52.0666 -0.00101222 -7.55894e-19)
(52.0685 5.17514e-05 -3.40684e-23)
(52.0711 0.00182087 -5.23046e-19)
(52.073 0.00217803 6.17213e-22)
(52.0765 0.00683838 -1.50596e-24)
(52.0788 0.00964708 -3.99205e-19)
(52.0813 0.0168227 1.33103e-19)
(52.0843 0.0273526 0)
(52.0861 0.0405665 3.07813e-23)
(52.0882 0.0647689 -3.53728e-23)
(52.0882 0.0976028 1.03592e-19)
(52.089 0.150193 -6.78794e-22)
(52.0864 0.229826 -8.73744e-20)
(52.082 0.359002 -1.0764e-19)
(52.0796 0.571362 -1.25404e-19)
(52.0817 0.896424 -1.27351e-19)
(52.0949 1.31247 -1.11433e-19)
(52.1225 1.80825 -6.63085e-20)
(52.1549 2.35984 -2.15752e-21)
(52.1845 2.93211 -1.69365e-20)
(52.214 3.50421 1.91592e-21)
(52.2277 4.04035 -3.61812e-21)
(52.2353 4.53212 4.34889e-21)
(52.2264 4.97253 -1.27248e-22)
(52.2004 5.36022 8.76716e-21)
(52.1555 5.69662 8.41711e-22)
(52.0849 5.98184 0)
(51.995 6.22643 -1.12192e-20)
(51.8964 6.43247 0)
(51.7978 6.5951 -5.21956e-20)
(51.7007 6.72187 -6.34173e-21)
(51.6026 6.8204 1.70766e-19)
(51.5051 6.90338 -1.15867e-19)
(51.4221 6.91091 -1.55138e-19)
(51.3246 7.09352 -2.0831e-20)
(51.2513 7.22776 2.11461e-19)
(51.2389 7.14682 0)
(51.3119 6.84911 2.78669e-19)
(52.0579 -0.0083362 2.10258e-19)
(52.057 -0.00291275 0)
(52.0586 -0.00370278 1.50366e-19)
(52.0587 -0.00241752 -5.03892e-19)
(52.0592 -0.00235962 2.81777e-19)
(52.0596 -0.00210734 -2.22833e-19)
(52.0604 -0.00217125 -3.79825e-23)
(52.0615 -0.00164942 2.54941e-19)
(52.0629 -0.00203863 -8.64578e-24)
(52.0644 -0.001096 -2.71486e-19)
(52.0667 -0.00115185 3.7727e-19)
(52.0686 -7.73403e-05 0)
(52.0713 0.00172953 3.4836e-19)
(52.0732 0.00207396 2.37806e-19)
(52.0768 0.0068732 -3.0893e-19)
(52.0792 0.00977959 3.98495e-19)
(52.0819 0.0171399 -1.87354e-23)
(52.085 0.0280617 2.8548e-24)
(52.0871 0.0416723 -1.87692e-23)
(52.0895 0.0665668 -1.55958e-19)
(52.0899 0.100334 -2.07666e-19)
(52.0913 0.154127 1.36451e-19)
(52.0894 0.235147 -8.81333e-20)
(52.0863 0.366167 1.09349e-19)
(52.0865 0.580562 6.24989e-20)
(52.093 0.907697 -4.17493e-22)
(52.1136 1.32568 5.52576e-20)
(52.1507 1.82338 3.14669e-20)
(52.1935 2.37761 2.52089e-21)
(52.2343 2.95226 2.29626e-21)
(52.2738 3.5274 -2.8757e-21)
(52.2964 4.06691 0)
(52.3094 4.56255 5.4908e-21)
(52.3043 5.00775 5.10247e-22)
(52.2834 5.40064 0)
(52.244 5.74252 8.07263e-21)
(52.1769 6.03424 -1.55773e-20)
(52.0896 6.28514 2.03225e-20)
(51.9969 6.4944 0)
(51.9046 6.65821 -4.88388e-20)
(51.8113 6.78775 7.58578e-20)
(51.7158 6.89028 6.92576e-22)
(51.6214 6.97526 -1.43739e-20)
(51.542 6.98169 0)
(51.4474 7.16705 -1.79932e-19)
(51.3772 7.30196 2.05587e-19)
(51.3684 7.21275 -2.42896e-19)
(51.445 6.90127 2.55216e-19)
(52.0579 -0.00856102 -1.06631e-19)
(52.057 -0.00300226 0)
(52.0586 -0.00381697 -2.98339e-19)
(52.0587 -0.00250061 4.98721e-19)
(52.0592 -0.00244477 0)
(52.0596 -0.00219403 1.31404e-21)
(52.0604 -0.00227061 3.40602e-19)
(52.0615 -0.00175039 -5.08905e-19)
(52.0629 -0.00216602 3.34664e-23)