/*--------------------------------*- C++ -*----------------------------------*\
| =========                 |                                                 |
| \\      /  F ield         | OpenFOAM: The Open Source CFD Toolbox           |
|  \\    /   O peration     | Version:  2406                                  |
|   \\  /    A nd           | Website:  www.openfoam.com                      |
|    \\/     M anipulation  |                                                 |
\*---------------------------------------------------------------------------*/
FoamFile
{
    version     2.0;
    format      ascii;
    arch        "LSB;label=32;scalar=64";
    class       volScalarField;
    location    "5";
    object      k;
}
// * * * * * * * * * * * * * * * * * * * * * * * * * * * * * * * * * * * * * //

dimensions      [0 2 -2 0 0 0 0];

internalField   nonuniform List<scalar> 
38016
(
0.0422347
0.0452121
0.04876
0.0523952
0.0560681
0.0597254
0.063313
0.0667784
0.0700752
0.0731654
0.0760204
0.0786239
0.0809676
0.0830547
0.0848918
0.0864969
0.0878826
0.0890748
0.0900903
0.0909496
0.0916693
0.0922927
0.0927311
0.0932
0.093452
0.0937984
0.0939809
0.0942188
0.0943928
0.0945407
0.0946621
0.0947688
0.0948625
0.0949534
0.0950363
0.095119
0.0952063
0.0953012
0.0954088
0.0955303
0.0956653
0.0958159
0.095983
0.0961734
0.0964054
0.0966469
0.0974596
0.0991971
0.0421506
0.0451037
0.0486353
0.0522555
0.0559152
0.0595617
0.063141
0.0666005
0.0698939
0.0729824
0.0758373
0.0784417
0.0807865
0.0828743
0.0847112
0.0863146
0.0876966
0.0888826
0.0898887
0.0907348
0.0914371
0.092034
0.0924506
0.0928709
0.093089
0.0933817
0.0935401
0.0937475
0.093902
0.0940351
0.0941457
0.094245
0.094334
0.0944227
0.0945054
0.0945902
0.0946813
0.0947818
0.0948952
0.0950225
0.0951624
0.0953158
0.0954828
0.0956684
0.0958905
0.0961119
0.0969378
0.0987485
0.0420515
0.0449793
0.048494
0.0520989
0.0557452
0.0593807
0.0629516
0.0664055
0.0696956
0.072783
0.0756383
0.078244
0.0805904
0.0826795
0.0845168
0.0861191
0.0874981
0.0886782
0.0896755
0.0905092
0.0911946
0.0917664
0.0921619
0.0925388
0.0927235
0.0929658
0.0930999
0.0932781
0.0934142
0.0935337
0.093635
0.0937283
0.0938137
0.0939009
0.0939836
0.0940704
0.0941645
0.0942681
0.0943839
0.0945114
0.0946491
0.0947966
0.0949538
0.0951247
0.0953266
0.0955211
0.0963561
0.0981888
0.041938
0.0448397
0.0483373
0.0519266
0.0555594
0.059184
0.0627467
0.0661951
0.0694822
0.0725688
0.075425
0.0780325
0.0803811
0.0824721
0.0843104
0.0859122
0.0872888
0.0884641
0.0894535
0.0902757
0.0909454
0.0914938
0.0918689
0.092206
0.0923584
0.0925556
0.0926665
0.0928196
0.0929394
0.093047
0.0931398
0.0932275
0.0933093
0.0933949
0.0934771
0.0935648
0.0936599
0.0937641
0.0938789
0.0940027
0.0941338
0.0942714
0.0944153
0.0945703
0.0947519
0.0949359
0.0957669
0.0975611
0.0418104
0.0446851
0.0481653
0.0517388
0.055358
0.0589714
0.0625258
0.0659688
0.0692532
0.0723392
0.0751965
0.0778061
0.0801573
0.0822506
0.0840904
0.0856923
0.0870672
0.0882382
0.0892204
0.090032
0.090687
0.0912132
0.0915688
0.0918682
0.0919895
0.0921439
0.0922326
0.0923618
0.0924658
0.0925617
0.0926461
0.0927281
0.0928062
0.0928898
0.0929713
0.0930595
0.0931551
0.0932594
0.0933723
0.0934919
0.0936166
0.0937451
0.0938784
0.0940207
0.0941859
0.0943626
0.0951802
0.0968957
0.0416688
0.0445155
0.0479776
0.0515349
0.05514
0.0587421
0.062288
0.0657255
0.069007
0.0720925
0.074951
0.077563
0.0799171
0.082013
0.0838548
0.0854571
0.0868307
0.0879978
0.0889735
0.0897749
0.0904157
0.090921
0.0912568
0.0915203
0.0916104
0.0917239
0.0917906
0.0918971
0.091986
0.0920708
0.0921473
0.0922241
0.092299
0.0923809
0.0924619
0.0925506
0.0926463
0.09275
0.0928601
0.0929743
0.0930913
0.0932099
0.0933321
0.0934629
0.0936076
0.0937825
0.0945691
0.096213
0.0415136
0.044331
0.0477744
0.0513147
0.0549053
0.0584956
0.0620327
0.0654644
0.0687429
0.0718278
0.0746876
0.077302
0.079659
0.0817578
0.0836016
0.0852046
0.0865771
0.0877407
0.08871
0.0895017
0.0901286
0.0906133
0.0909293
0.0911578
0.0912161
0.0912897
0.091334
0.0914182
0.0914922
0.0915659
0.0916347
0.0917063
0.0917778
0.0918577
0.0919381
0.0920264
0.0921214
0.0922229
0.0923287
0.0924365
0.092545
0.0926541
0.0927673
0.0928854
0.0930146
0.0931857
0.0939406
0.0955442
0.0413452
0.0441319
0.047556
0.0510788
0.0546542
0.0582321
0.06176
0.0651855
0.0684608
0.071545
0.0744059
0.0770227
0.0793827
0.0814844
0.0833304
0.0849343
0.086306
0.0874663
0.0884295
0.0892118
0.0898253
0.0902903
0.090586
0.0907808
0.0908068
0.090842
0.0908636
0.0909266
0.0909861
0.0910492
0.0911104
0.091177
0.0912452
0.091323
0.0914024
0.0914897
0.0915829
0.0916809
0.091781
0.0918808
0.0919801
0.0920799
0.0921842
0.0922924
0.0924059
0.0925759
0.0933003
0.0948994
0.0411641
0.0439188
0.0473227
0.0508274
0.054387
0.0579521
0.0614702
0.0648892
0.0681609
0.0712439
0.0741058
0.0767248
0.0790877
0.0811922
0.0830405
0.0846453
0.0860164
0.0871737
0.0881311
0.0889043
0.0895047
0.0899505
0.0902262
0.0903882
0.0903816
0.0903794
0.0903782
0.0904204
0.0904656
0.090518
0.0905718
0.0906332
0.090698
0.0907733
0.0908511
0.0909364
0.0910265
0.0911197
0.0912132
0.0913049
0.0913957
0.0914883
0.0915844
0.0916851
0.091785
0.0919563
0.092651
0.0942801
0.0409706
0.0436921
0.0470753
0.050561
0.0541043
0.0576559
0.0611638
0.0645756
0.0678432
0.0709248
0.0737872
0.0764082
0.0787739
0.0808811
0.0827316
0.0843375
0.0857081
0.0868626
0.0878147
0.0885793
0.0891672
0.0895947
0.0898502
0.0899808
0.0899417
0.0899036
0.0898797
0.0899022
0.0899336
0.0899758
0.0900224
0.0900788
0.0901402
0.0902126
0.0902884
0.0903709
0.090457
0.0905443
0.0906302
0.0907131
0.0907959
0.0908815
0.0909716
0.0910644
0.091157
0.0913256
0.0919965
0.0936815
0.0407654
0.0434524
0.046814
0.0502803
0.0538065
0.0573439
0.0608409
0.0642451
0.067508
0.0705876
0.0734501
0.0760727
0.0784407
0.0805505
0.0824032
0.0840101
0.0853803
0.0865323
0.0874793
0.0882357
0.0888116
0.0892217
0.0894576
0.0895578
0.0894864
0.0894136
0.0893672
0.0893705
0.0893883
0.0894204
0.0894598
0.0895111
0.0895687
0.0896379
0.0897109
0.0897896
0.0898706
0.0899514
0.0900297
0.0901048
0.0901814
0.0902606
0.0903465
0.0904329
0.0905219
0.0906862
0.0913425
0.0930909
0.0405489
0.0432
0.0465396
0.0499857
0.0534941
0.0570168
0.0605021
0.0638979
0.0671554
0.0702324
0.0730945
0.0757182
0.0780882
0.0802003
0.0820549
0.0836629
0.0850328
0.0861826
0.087125
0.0878738
0.0884385
0.0888323
0.0890489
0.0891201
0.0890171
0.0889112
0.0888428
0.088828
0.0888328
0.0888553
0.0888879
0.0889342
0.0889879
0.0890534
0.0891231
0.0891973
0.0892723
0.0893459
0.0894161
0.0894838
0.0895543
0.0896287
0.0897094
0.0897943
0.0898772
0.0900435
0.0906769
0.0924988
0.0403216
0.0429356
0.0462524
0.0496777
0.0531677
0.0566748
0.0601477
0.0635343
0.0667858
0.0698594
0.0727202
0.0753444
0.077716
0.0798299
0.0816862
0.0832952
0.0846649
0.0858127
0.0867509
0.0874928
0.088047
0.0884253
0.0886237
0.0886672
0.0885332
0.0883956
0.0883058
0.0882733
0.0882657
0.0882787
0.0883044
0.0883456
0.0883951
0.0884565
0.088522
0.0885907
0.0886595
0.0887258
0.0887886
0.0888503
0.0889157
0.0889861
0.0890635
0.0891478
0.089228
0.0893937
0.090007
0.0919036
0.0400841
0.0426598
0.0459532
0.0493569
0.0528278
0.0563185
0.0597782
0.0631547
0.0663993
0.0694686
0.0723275
0.0749515
0.0773239
0.0794393
0.0812971
0.0829068
0.0842765
0.0854226
0.0863572
0.0870929
0.0876376
0.0880019
0.0881826
0.0882003
0.0880364
0.0878688
0.0877584
0.0877096
0.08769
0.0876942
0.0877134
0.0877495
0.0877948
0.0878516
0.0879123
0.0879751
0.0880369
0.0880956
0.0881512
0.0882072
0.0882683
0.088334
0.0884116
0.0884943
0.0885763
0.0887406
0.0893333
0.0913067
0.0398368
0.0423729
0.0456424
0.049024
0.052475
0.0559485
0.059394
0.0627596
0.0659962
0.0690603
0.0719164
0.0745393
0.0769119
0.0790281
0.080887
0.0824974
0.0838671
0.0850118
0.0859432
0.0866735
0.0872098
0.0875611
0.0877257
0.0877191
0.0875263
0.0873305
0.0872002
0.0871357
0.0871048
0.0871002
0.0871131
0.087144
0.0871846
0.0872363
0.0872915
0.0873479
0.0874029
0.0874544
0.0875042
0.0875548
0.0876127
0.0876757
0.0877547
0.0878379
0.0879243
0.0880882
0.0886701
0.0907104
0.0395804
0.0420757
0.0453207
0.0486795
0.0521098
0.0555653
0.0589958
0.0623493
0.0655769
0.0686348
0.071487
0.0741079
0.07648
0.0785964
0.080456
0.0820669
0.0834367
0.0845804
0.0855094
0.0862352
0.0867642
0.0871043
0.0872538
0.0872249
0.0870049
0.0867827
0.0866338
0.0865548
0.0865133
0.0865008
0.0865077
0.0865334
0.0865692
0.0866155
0.0866647
0.0867144
0.0867621
0.0868065
0.08685
0.0868972
0.0869511
0.0870136
0.087094
0.0871826
0.0872707
0.0874433
0.0879972
0.0901052
0.0393154
0.0417686
0.0449885
0.0483239
0.0517329
0.0551695
0.0585839
0.0619244
0.0651418
0.0681923
0.0710395
0.0736574
0.076028
0.078144
0.0800038
0.081615
0.082985
0.084128
0.0850553
0.0857776
0.0863005
0.0866308
0.0867671
0.0867177
0.0864721
0.0862255
0.0860589
0.0859663
0.0859149
0.0858946
0.0858957
0.0859162
0.0859467
0.0859871
0.08603
0.0860729
0.0861138
0.0861518
0.0861913
0.0862338
0.0862864
0.0863488
0.0864342
0.0865268
0.0866221
0.0867998
0.087329
0.0895035
0.0390423
0.0414523
0.0446467
0.0479581
0.0513448
0.0547617
0.058159
0.0614852
0.0646913
0.0677333
0.0705743
0.0731881
0.0755563
0.0776712
0.0795307
0.081142
0.0825122
0.0836551
0.0845815
0.0853014
0.0858198
0.0861423
0.0862668
0.0861993
0.08593
0.0856612
0.0854785
0.0853736
0.0853131
0.0852858
0.0852815
0.0852968
0.0853221
0.0853564
0.0853926
0.0854285
0.0854625
0.0854945
0.0855295
0.0855693
0.0856206
0.0856842
0.0857761
0.0858748
0.0859801
0.0861643
0.0866658
0.0889036
0.0387617
0.0411274
0.0442957
0.0475824
0.0509463
0.0543425
0.0577216
0.0610325
0.064226
0.067258
0.0700917
0.0727003
0.075065
0.0771779
0.0790366
0.0806479
0.0820185
0.0831616
0.0840878
0.0848066
0.0853219
0.0856383
0.0857533
0.0856698
0.0853789
0.0850901
0.0848925
0.0847763
0.0847075
0.0846736
0.0846641
0.0846741
0.0846939
0.0847218
0.0847513
0.0847807
0.0848083
0.0848355
0.0848669
0.0849045
0.0849558
0.085022
0.085123
0.0852291
0.0853465
0.0855389
0.0860097
0.0883084
0.0384741
0.0407943
0.0439362
0.0471977
0.050538
0.0539126
0.0572725
0.0605667
0.0637463
0.0667672
0.0695921
0.0721943
0.0745546
0.0766648
0.0785221
0.0801331
0.0815043
0.0826483
0.0835753
0.0842942
0.0848082
0.0851207
0.085228
0.0851313
0.0848212
0.0845148
0.0843041
0.0841779
0.0841018
0.0840622
0.0840479
0.0840529
0.0840673
0.0840887
0.0841114
0.084134
0.0841557
0.0841778
0.084207
0.0842419
0.084295
0.084364
0.0844772
0.0845915
0.0847241
0.0849255
0.0853622
0.0877292
0.0381802
0.0404537
0.0435688
0.0468046
0.0501205
0.0534726
0.0568122
0.0600886
0.063253
0.0662612
0.0690761
0.0716706
0.0740255
0.076132
0.0779875
0.079598
0.0809699
0.0821153
0.0830441
0.0837647
0.084279
0.0845897
0.0846919
0.0845844
0.0842575
0.0839358
0.0837136
0.0835786
0.0834961
0.0834511
0.0834324
0.0834323
0.0834411
0.0834561
0.0834724
0.083489
0.0835053
0.0835244
0.0835508
0.083585
0.0836406
0.0837144
0.0838415
0.0839671
0.0841186
0.0843252
0.0847439
0.0871842
0.0378803
0.0401062
0.0431941
0.0464037
0.0496946
0.0530232
0.0563414
0.0595988
0.0627466
0.0657409
0.0685444
0.07113
0.0734783
0.0755805
0.0774336
0.0790434
0.0804163
0.0815638
0.0824956
0.0832191
0.0837359
0.0840472
0.0841465
0.0840312
0.0836903
0.083356
0.0831241
0.0829819
0.082894
0.0828448
0.0828221
0.0828172
0.0828207
0.0828294
0.0828393
0.0828499
0.0828616
0.0828773
0.0829031
0.0829365
0.0829958
0.0830759
0.083219
0.0833586
0.0835265
0.0837458
0.0841206
0.0866463
0.0375752
0.0397523
0.0428127
0.0459956
0.0492608
0.0525652
0.055861
0.0590981
0.062228
0.0652069
0.0679977
0.0705731
0.0729138
0.0750107
0.076861
0.07847
0.0798441
0.0809944
0.0819302
0.0826585
0.0831796
0.0834937
0.0835929
0.0834727
0.0831206
0.0827763
0.0825366
0.0823882
0.0822959
0.0822428
0.0822165
0.0822072
0.0822055
0.0822083
0.0822124
0.0822179
0.0822262
0.0822398
0.0822652
0.0822993
0.0823636
0.082452
0.0826135
0.0827694
0.0829606
0.0831843
0.0835418
0.0861578
0.0372653
0.0393925
0.0424253
0.0455811
0.04882
0.0520993
0.0553716
0.0585872
0.061698
0.0646602
0.0674369
0.070001
0.072333
0.074424
0.076271
0.0778791
0.0792547
0.0804085
0.0813497
0.0820843
0.0826119
0.0829315
0.0830332
0.0829112
0.082551
0.0821995
0.081954
0.0818013
0.0817057
0.0816499
0.0816207
0.0816074
0.0816008
0.081598
0.0815965
0.0815974
0.0816025
0.0816153
0.0816407
0.0816766
0.0817476
0.081847
0.0820299
0.0822087
0.0824179
0.0826582
0.0829623
0.0856803
0.0369511
0.0390274
0.0420324
0.0451608
0.0483728
0.0516262
0.0548741
0.058067
0.0611573
0.0641015
0.0668629
0.0694144
0.0717369
0.0738211
0.0756644
0.0772716
0.0786492
0.0798074
0.080755
0.0814977
0.0820338
0.0823615
0.0824688
0.082348
0.0819828
0.0816269
0.0813775
0.0812217
0.081124
0.0810661
0.0810343
0.0810175
0.0810066
0.0809987
0.0809926
0.08099
0.0809937
0.0810057
0.0810332
0.0810723
0.0811514
0.0812657
0.0814736
0.0816798
0.0819109
0.082165
0.0824181
0.0852493
0.0366332
0.0386577
0.0416346
0.0447353
0.0479199
0.0511468
0.0543692
0.0575385
0.0606071
0.0635321
0.066277
0.0688149
0.0711268
0.0732037
0.0750429
0.0766493
0.0780293
0.0791927
0.0801482
0.0809007
0.0814477
0.0817861
0.0819016
0.0817855
0.0814187
0.0810613
0.0808103
0.0806532
0.0805547
0.0804959
0.0804624
0.0804428
0.0804279
0.0804156
0.0804051
0.0803999
0.0804027
0.0804162
0.0804459
0.0804901
0.0805795
0.080711
0.0809474
0.0811855
0.081439
0.0817067
0.0818996
0.0848583
0.036312
0.0382836
0.0412325
0.0443052
0.0474621
0.0506617
0.0538579
0.0570025
0.0600484
0.062953
0.0656802
0.0682035
0.070504
0.072573
0.074408
0.0760135
0.0773964
0.0785659
0.0795306
0.0802948
0.0808548
0.0812064
0.0813335
0.0812252
0.0808602
0.0805041
0.0802536
0.0800966
0.0799984
0.0799395
0.079905
0.0798832
0.0798653
0.0798493
0.0798356
0.0798292
0.079833
0.0798485
0.0798831
0.0799336
0.0800357
0.0801883
0.0804587
0.0807328
0.0810124
0.0812899
0.0814149
0.0845238
0.0359881
0.0379059
0.0408267
0.0438713
0.047
0.0501718
0.0533411
0.05646
0.0594822
0.0623654
0.065074
0.0675817
0.0698703
0.0719309
0.0737614
0.0753663
0.0767526
0.0779293
0.0789046
0.0796822
0.0802576
0.0806253
0.0807667
0.0806696
0.08031
0.0799584
0.0797106
0.0795556
0.0794592
0.0794013
0.079367
0.0793438
0.0793236
0.0793045
0.0792883
0.0792815
0.0792878
0.0793068
0.0793471
0.0794066
0.0795236
0.0797007
0.0800089
0.0803238
0.0806307
0.0809192
0.0809554
0.0842271
0.0356618
0.0375249
0.0404177
0.0434341
0.0465343
0.0496778
0.0528195
0.0559121
0.0589096
0.0617705
0.0644596
0.0669512
0.0692271
0.071279
0.073105
0.0747095
0.0760999
0.0772846
0.0782719
0.0790647
0.0796576
0.0800439
0.0802029
0.0801204
0.0797697
0.0794255
0.0791826
0.0790311
0.0789377
0.0788819
0.0788485
0.0788249
0.0788033
0.0787824
0.0787647
0.0787598
0.0787695
0.0787942
0.0788425
0.0789121
0.0790477
0.0792516
0.0796056
0.0799622
0.0803146
0.0805899
0.0805764
0.0840062
0.0353338
0.0371412
0.0400061
0.0429942
0.0460658
0.0491806
0.0522942
0.0553597
0.0583319
0.0611698
0.0638388
0.0663135
0.0685764
0.0706195
0.0724409
0.0740455
0.0754405
0.0766344
0.077635
0.0784449
0.0790575
0.0794652
0.0796446
0.0795802
0.0792421
0.0789083
0.0786727
0.0785266
0.0784378
0.0783854
0.0783542
0.0783313
0.0783093
0.0782872
0.0782691
0.078267
0.0782827
0.0783138
0.0783724
0.0784541
0.0786114
0.0788465
0.0792541
0.0796612
0.0800565
0.0803345
0.0802029
0.0837968
0.0350044
0.0367551
0.0395923
0.0425523
0.0455951
0.048681
0.051766
0.054804
0.0577503
0.0605647
0.0632129
0.0656705
0.0679201
0.0699542
0.0717713
0.0733763
0.0747767
0.0759807
0.076996
0.0778246
0.0784591
0.0788906
0.0790936
0.0790505
0.0787287
0.0784082
0.0781822
0.0780432
0.0779603
0.0779124
0.0778846
0.0778636
0.0778424
0.0778205
0.0778033
0.0778058
0.0778281
0.0778689
0.0779391
0.0780356
0.0782175
0.0784879
0.0789566
0.0794183
0.079871
0.0801308
0.0799207
0.0836808
0.0346741
0.0363673
0.039177
0.0421088
0.0451228
0.0481797
0.0512359
0.0542461
0.0571662
0.0599566
0.0625839
0.065024
0.0672603
0.0692855
0.0710986
0.0727045
0.074111
0.0753263
0.0763577
0.0772067
0.0778652
0.0783229
0.0785524
0.0785339
0.0782322
0.0779282
0.077714
0.077584
0.0775088
0.0774669
0.0774439
0.0774259
0.0774066
0.0773859
0.0773703
0.0773786
0.0774096
0.0774598
0.077545
0.0776558
0.0778685
0.0781767
0.0787194
0.079241
0.0797547
0.0799978
0.0796457
0.0835925
0.0343432
0.0359779
0.0387604
0.0416644
0.0446497
0.0476774
0.0507048
0.053687
0.0565807
0.059347
0.0619532
0.0643759
0.0665989
0.0686155
0.070425
0.0720324
0.073446
0.0746734
0.0757221
0.0765932
0.0772775
0.0777638
0.0780227
0.0780321
0.0777542
0.0774694
0.0772695
0.0771501
0.077084
0.0770495
0.0770326
0.077019
0.0770032
0.0769849
0.0769726
0.0769867
0.0770279
0.0770895
0.0771897
0.0773195
0.0775631
0.077919
0.0785401
0.0791344
0.079707
0.0799374
0.0794343
0.0835849
0.0340123
0.0355875
0.0383431
0.0412196
0.0441763
0.0471751
0.0501737
0.0531279
0.0559952
0.0587375
0.0613228
0.0637282
0.0659384
0.0679468
0.0697532
0.0713629
0.0727842
0.074025
0.0750923
0.0759868
0.0766989
0.077216
0.0775069
0.0775475
0.077297
0.0770345
0.0768511
0.0767445
0.0766893
0.0766636
0.0766543
0.0766467
0.0766356
0.076621
0.076612
0.0766337
0.0766851
0.0767594
0.0768756
0.0770274
0.0773048
0.0777149
0.0784189
0.0791003
0.0797277
0.0799536
0.0792755
0.0836336
0.0336815
0.0351964
0.0379256
0.0407747
0.0437033
0.0466734
0.0496433
0.0525697
0.055411
0.0581295
0.0606943
0.063083
0.0652807
0.0672815
0.0690855
0.0706983
0.0721283
0.0733833
0.0744703
0.0753897
0.0761311
0.0766811
0.0770067
0.0770814
0.0768621
0.0766247
0.0764602
0.0763679
0.0763251
0.07631
0.0763097
0.0763097
0.0763049
0.0762955
0.0762914
0.0763197
0.0763831
0.0764705
0.0766055
0.076782
0.0770955
0.0775686
0.0783641
0.0791455
0.0798287
0.08005
0.0791724
0.0837636
0.0333514
0.034805
0.0375081
0.0403305
0.0432312
0.0461729
0.0491146
0.0520138
0.0548293
0.0575247
0.0600695
0.0624421
0.0646281
0.0666221
0.0684246
0.0700413
0.0714809
0.0727512
0.0738591
0.0748046
0.075577
0.0761618
0.0765244
0.0766362
0.0764517
0.0762423
0.0760989
0.0760229
0.0759943
0.0759913
0.0760018
0.076011
0.076014
0.076011
0.0760122
0.0760483
0.0761219
0.0762269
0.0763788
0.0765865
0.0769366
0.0774842
0.078375
0.0792773
0.0800112
0.0802481
0.0791261
0.0839255
0.0330223
0.0344135
0.0370911
0.0398871
0.0427605
0.0456744
0.0485884
0.0514609
0.0542515
0.0569245
0.0594501
0.0618075
0.0639827
0.0659709
0.0677728
0.0693943
0.0708445
0.072131
0.0732608
0.0742336
0.0750383
0.0756595
0.0760615
0.0762132
0.0760669
0.0758882
0.0757681
0.0757102
0.0756974
0.0757083
0.0757311
0.0757513
0.0757641
0.0757694
0.0757764
0.0758205
0.0759057
0.0760278
0.0762012
0.0764414
0.076835
0.0774631
0.0784629
0.0794967
0.0803054
0.0805207
0.07923
0.0842482
0.0326945
0.0340223
0.0366748
0.0394451
0.0422917
0.0451784
0.0480656
0.0509121
0.0536787
0.0563303
0.0588378
0.0611811
0.0633467
0.0653302
0.0671326
0.0687599
0.0702216
0.0715254
0.072678
0.0736792
0.0745174
0.0751766
0.0756199
0.0758142
0.0757095
0.0755643
0.0754697
0.0754319
0.0754366
0.075463
0.0754998
0.0755329
0.0755573
0.0755723
0.0755872
0.0756389
0.0757359
0.0758774
0.0760737
0.076351
0.0767922
0.0775137
0.0786316
0.0798201
0.0806843
0.0809089
0.0793489
0.0846078
0.0323684
0.0336316
0.0362597
0.0390048
0.0418253
0.0446856
0.0475466
0.0503683
0.0531119
0.0557433
0.0582342
0.0605646
0.062722
0.064702
0.0665061
0.0681405
0.0696147
0.0709366
0.0721129
0.0731432
0.074016
0.0747145
0.0752012
0.0754405
0.0753806
0.0752714
0.0752045
0.0751884
0.0752122
0.0752559
0.0753085
0.0753564
0.0753944
0.0754215
0.0754453
0.075506
0.0756153
0.0757782
0.0760001
0.0763207
0.0768126
0.0776399
0.0788827
0.0802478
0.0811853
0.0814013
0.079645
0.0851776
0.0320441
0.0332417
0.0358458
0.0385665
0.0413616
0.0441964
0.0470324
0.0498304
0.0525524
0.055165
0.0576406
0.0599599
0.0621105
0.0640886
0.0658956
0.0675382
0.069026
0.0703669
0.0715677
0.0726281
0.0735364
0.0742753
0.0748068
0.0750934
0.0750815
0.0750108
0.0749737
0.0749813
0.0750259
0.0750885
0.0751587
0.0752232
0.0752768
0.0753177
0.0753533
0.0754233
0.0755458
0.0757332
0.075984
0.0763531
0.0769022
0.0778492
0.079232
0.0807964
0.0818048
0.0820289
0.0799335
0.0857212
0.0317221
0.0328528
0.0354336
0.0381304
0.0409011
0.0437112
0.0465234
0.049299
0.0520009
0.0545964
0.0570585
0.0593683
0.0615138
0.0634915
0.0653031
0.0669552
0.0684575
0.0698184
0.0710444
0.0721353
0.0730798
0.0738602
0.0744379
0.0747739
0.0748129
0.0747832
0.0747778
0.0748106
0.0748775
0.0749609
0.0750504
0.0751336
0.0752049
0.0752621
0.0753113
0.0753928
0.0755296
0.0757437
0.0760271
0.0764498
0.0770606
0.0781348
0.0796707
0.0814448
0.0825617
0.0827808
0.0804053
0.0864737
0.0314026
0.0324651
0.0350231
0.0376969
0.040444
0.0432306
0.0460202
0.0487749
0.0514584
0.0540386
0.056489
0.0587913
0.0609337
0.0629128
0.0647303
0.0663933
0.0679113
0.069293
0.0705448
0.071667
0.0726483
0.0734707
0.0740959
0.0744832
0.0745758
0.0745893
0.0746176
0.0746775
0.0747683
0.074874
0.0749846
0.0750883
0.0751792
0.0752546
0.0753212
0.0754147
0.0755679
0.0758103
0.0761319
0.0766089
0.0772965
0.0785024
0.0802281
0.0822082
0.0834478
0.0836143
0.0808146
0.0872494
0.0310858
0.0320787
0.0346146
0.0372661
0.0399905
0.0427548
0.0455232
0.0482585
0.0509254
0.0534923
0.0559332
0.05823
0.0603712
0.0623536
0.0641789
0.0658541
0.067389
0.0687922
0.0700706
0.0712244
0.0722428
0.073108
0.0737817
0.0742218
0.0743706
0.0744293
0.0744932
0.0745818
0.0746979
0.0748275
0.0749609
0.075087
0.0751996
0.0752965
0.075381
0.0754912
0.0756609
0.0759336
0.0762975
0.0768313
0.0776052
0.0789439
0.080878
0.0830597
0.0844503
0.0845691
0.081413
0.0882061
0.030772
0.0316939
0.0342082
0.0368382
0.0395409
0.0422841
0.0450326
0.0477504
0.0504026
0.0529583
0.0553919
0.0576855
0.0598278
0.0618154
0.0636502
0.0653392
0.0668921
0.0683178
0.0696232
0.070809
0.0718649
0.0727732
0.0734961
0.0739905
0.0741978
0.0743038
0.0744049
0.0745237
0.0746668
0.0748216
0.0749795
0.0751299
0.0752663
0.0753859
0.0754938
0.0756191
0.0758126
0.0761102
0.0765293
0.0771155
0.0780004
0.0794699
0.0816568
0.0840208
0.0856089
0.0856281
0.0820385
0.0891915
0.0304614
0.0313107
0.033804
0.0364133
0.0390953
0.0418185
0.0445489
0.0472509
0.0498904
0.0524372
0.0548658
0.0571585
0.0593041
0.0612991
0.0631452
0.0648496
0.0664217
0.0678708
0.0692038
0.0704219
0.0715153
0.072467
0.0732397
0.0737897
0.0740575
0.0742126
0.0743523
0.0745031
0.0746743
0.0748558
0.0750398
0.0752163
0.0753786
0.0755238
0.0756565
0.0758025
0.0760183
0.0763469
0.0768171
0.0774719
0.0784622
0.0800892
0.0825114
0.0850985
0.0868382
0.0868178
0.0827821
0.0902216
0.0301543
0.0309293
0.033402
0.0359915
0.0386537
0.0413584
0.044072
0.0467601
0.0493892
0.0519292
0.0543553
0.0566496
0.0588009
0.0608056
0.062665
0.0643863
0.065979
0.0674523
0.0688134
0.0700641
0.0711952
0.0721903
0.0730131
0.0736195
0.0739497
0.0741555
0.0743355
0.0745194
0.0747202
0.0749297
0.0751413
0.0753456
0.0755358
0.075709
0.0758693
0.07604
0.07628
0.0766421
0.0771674
0.0778997
0.0790054
0.080804
0.0834714
0.086299
0.0881987
0.0881574
0.0835683
0.0912819
0.0298508
0.0305497
0.0330025
0.0355727
0.0382163
0.0409036
0.0436022
0.0462782
0.0488989
0.0514346
0.0538606
0.0561591
0.0583186
0.0603352
0.06221
0.06395
0.0655645
0.0670629
0.0684527
0.069736
0.0709048
0.0719434
0.0728166
0.0734801
0.0738743
0.0741321
0.0743537
0.0745722
0.0748036
0.0750423
0.0752828
0.0755166
0.0757369
0.0759405
0.0761314
0.0763312
0.0765979
0.0769962
0.0775817
0.0784003
0.079634
0.0816179
0.0845444
0.0876293
0.0896984
0.0896591
0.084432
0.0923469
0.0295511
0.0301721
0.0326053
0.0351572
0.037783
0.0404542
0.0431392
0.0458051
0.0484196
0.0509535
0.0533819
0.0556871
0.0578573
0.0598882
0.0617805
0.063541
0.0651787
0.0667033
0.0681222
0.0694385
0.0706449
0.0717267
0.0726501
0.0733713
0.0738307
0.074142
0.0744063
0.0746604
0.0749236
0.0751926
0.0754634
0.0757283
0.0759806
0.076217
0.0764414
0.0766743
0.0769708
0.0774083
0.0780581
0.0789721
0.0803442
0.0825279
0.0857186
0.0890812
0.091314
0.0912826
0.0853831
0.0933714
0.0292554
0.0297964
0.0322105
0.0347447
0.0373537
0.0400101
0.0426831
0.0453407
0.0479511
0.0504855
0.052919
0.0552335
0.057417
0.0594646
0.0613766
0.0631594
0.0648217
0.0663734
0.0678221
0.0691715
0.0704154
0.0715403
0.0725138
0.0732929
0.0738185
0.0741842
0.0744923
0.0747832
0.0750791
0.0753793
0.0756815
0.0759791
0.0762653
0.0765367
0.0767974
0.0770671
0.0773975
0.0778768
0.078594
0.0796112
0.0811309
0.0835261
0.0869811
0.090634
0.0930166
0.092946
0.0864419
0.0943337
0.0289639
0.0294229
0.0318182
0.0343353
0.0369284
0.0395711
0.0422337
0.0448847
0.0474932
0.0500304
0.0524714
0.054798
0.0569973
0.0590642
0.060998
0.0628051
0.0644935
0.0660734
0.0675525
0.0689352
0.0702164
0.071384
0.0724073
0.0732444
0.0738368
0.0742578
0.0746105
0.0749391
0.0752685
0.0756008
0.0759356
0.0762672
0.0765892
0.076898
0.0771977
0.0775075
0.077877
0.0784011
0.079189
0.0803175
0.0819958
0.0846129
0.0883383
0.092292
0.0948303
0.0947034
0.0875569
0.0952854
0.0286768
0.0290513
0.0314282
0.0339289
0.036507
0.0391371
0.0417906
0.0444368
0.0470454
0.0495876
0.0520387
0.0543797
0.0565975
0.0586861
0.0606441
0.0624773
0.0641935
0.0658026
0.0673129
0.0687291
0.0700475
0.0712575
0.0723302
0.073225
0.0738849
0.0743618
0.0747598
0.0751269
0.0754905
0.0758555
0.0762237
0.0765906
0.0769502
0.0772988
0.0776403
0.0779938
0.0784083
0.0789816
0.0798438
0.0810917
0.0829416
0.0857917
0.0897981
0.094054
0.0967494
0.0965609
0.0887449
0.0962976
0.0283942
0.0286819
0.0310407
0.0335254
0.0360892
0.0387078
0.0413535
0.0439966
0.0466071
0.0491566
0.0516201
0.0539782
0.056217
0.0583297
0.0603141
0.0621755
0.0639211
0.0655607
0.0671027
0.0685528
0.0699083
0.0711601
0.0722817
0.073234
0.0739613
0.0744945
0.0749383
0.0753444
0.0757428
0.0761412
0.0765437
0.0769471
0.0773461
0.0777369
0.078123
0.0785237
0.0789899
0.0796174
0.0805568
0.0819299
0.0839627
0.0870503
0.0913348
0.0958704
0.0987025
0.0984407
0.0900128
0.0971292
0.0281162
0.0283146
0.0306554
0.0331248
0.0356749
0.0382829
0.040922
0.0435634
0.0461776
0.0487365
0.0512146
0.0535922
0.0558545
0.0579937
0.0600069
0.0618985
0.0636752
0.0653465
0.0669212
0.0684054
0.0697979
0.0710913
0.0722611
0.0732703
0.0740649
0.0746547
0.0751449
0.0755905
0.076024
0.0764562
0.0768934
0.0773345
0.0777745
0.0782096
0.0786436
0.0790953
0.0796193
0.0803067
0.0813284
0.0828311
0.0850622
0.0883918
0.0929749
0.0977794
0.100794
0.100509
0.0912919
0.0980981
0.0278431
0.0279495
0.0302724
0.0327268
0.035264
0.0378621
0.0404958
0.0431368
0.0457563
0.0483264
0.0508213
0.0532206
0.0555088
0.057677
0.0597212
0.0616451
0.0634545
0.0651589
0.0667671
0.068286
0.0697154
0.0710499
0.0722672
0.0733326
0.0741941
0.0748404
0.075377
0.0758624
0.0763313
0.0767975
0.0772701
0.0777497
0.0782323
0.0787143
0.0791994
0.0797057
0.0802921
0.0810469
0.082157
0.0837959
0.0862384
0.0898249
0.0947068
0.0997613
0.102914
0.102671
0.0927037
0.0988459
0.0275749
0.0275864
0.0298916
0.0323314
0.0348561
0.0374451
0.0400741
0.042716
0.0453423
0.0479252
0.0504389
0.052862
0.0551784
0.0573778
0.0594553
0.0614134
0.0632574
0.0649964
0.066639
0.068193
0.0696594
0.0710347
0.0722988
0.0734196
0.0743474
0.07505
0.0756332
0.0761586
0.0766631
0.0771633
0.0776715
0.0781903
0.0787168
0.0792479
0.0797871
0.0803519
0.0810044
0.0818348
0.0830404
0.0848178
0.0874831
0.0913318
0.0965281
0.101826
0.105165
0.105072
0.0941131
0.0997106
0.0273119
0.0272256
0.029513
0.0319385
0.034451
0.0370315
0.0396567
0.0423003
0.0449346
0.0475319
0.050066
0.052515
0.0548616
0.0570945
0.0592074
0.0612019
0.0630822
0.0648572
0.0665353
0.068125
0.0696285
0.071044
0.0723542
0.0735294
0.0745225
0.075281
0.0759107
0.0764759
0.0770159
0.0775502
0.0780941
0.0786527
0.0792244
0.0798066
0.0804034
0.0810302
0.081752
0.0826676
0.0839757
0.0858997
0.0887989
0.0929363
0.0984482
0.103987
0.107431
0.107543
0.0956871
0.100395
0.027054
0.0268669
0.0291365
0.0315478
0.0340486
0.036621
0.0392429
0.0418891
0.0445323
0.0471452
0.0497013
0.0521779
0.0545566
0.056825
0.0589754
0.0610082
0.0629268
0.0647391
0.0664539
0.0680799
0.0696207
0.0710764
0.0724319
0.0736604
0.0747178
0.0755317
0.0762077
0.0768127
0.0773881
0.0779562
0.0785356
0.0791341
0.0797519
0.0803873
0.0810443
0.0817371
0.082531
0.0835363
0.0849543
0.0870286
0.0901659
0.0945993
0.100435
0.106218
0.109798
0.11025
0.0972789
0.101251
0.0268015
0.0265104
0.028762
0.0311594
0.0336486
0.0362131
0.0388322
0.0414815
0.0441345
0.0467639
0.0493432
0.0518489
0.0542616
0.0565673
0.0587572
0.0608302
0.0627887
0.06464
0.0663926
0.0680558
0.0696341
0.0711295
0.0725295
0.0738103
0.0749306
0.0757991
0.0765209
0.0771654
0.0777758
0.0783773
0.0789921
0.0796306
0.0802954
0.0809854
0.0817056
0.0824681
0.0833374
0.0844339
0.0859692
0.0882045
0.0915847
0.0963442
0.1025
0.108523
0.112094
0.112704
0.0990581
0.102234
0.0265545
0.026156
0.0283894
0.0307729
0.0332507
0.0358075
0.038424
0.0410767
0.04374
0.0463868
0.0489902
0.0515262
0.0539743
0.056319
0.0585502
0.0606654
0.0626656
0.0645574
0.0663491
0.0680501
0.0696664
0.0712014
0.0726452
0.0739772
0.075159
0.0760812
0.0768485
0.0775323
0.0781773
0.0788116
0.079461
0.0801391
0.0808509
0.0815977
0.0823817
0.0832188
0.0841664
0.0853536
0.0870085
0.0894065
0.0930231
0.0981069
0.104581
0.110845
0.114424
0.115167
0.100882
0.103403
0.0263131
0.0258037
0.0280188
0.0303884
0.0328547
0.0354039
0.0380178
0.0406742
0.043348
0.0460125
0.0486408
0.0512081
0.0536927
0.056078
0.0583521
0.060511
0.0625546
0.0644885
0.0663204
0.0680604
0.0697149
0.0712894
0.0727763
0.0741582
0.0753999
0.0763749
0.077187
0.0779094
0.0785883
0.0792548
0.0799382
0.0806553
0.0814147
0.0822167
0.0830698
0.0839812
0.0850135
0.0862888
0.0880579
0.0906268
0.0944729
0.0999019
0.106686
0.113211
0.116698
0.11738
0.102858
0.104464
0.0260774
0.0254536
0.0276499
0.0300057
0.0324604
0.0350019
0.0376131
0.040273
0.0429573
0.0456398
0.0482934
0.0508925
0.0534147
0.0558417
0.0581602
0.0603645
0.062453
0.0644304
0.066304
0.0680837
0.0697771
0.0713911
0.0729206
0.0743512
0.0756511
0.076678
0.0775343
0.078295
0.0790073
0.0797052
0.0804212
0.0811763
0.0819815
0.082842
0.0837597
0.084754
0.0858667
0.0872369
0.0891001
0.091833
0.0958682
0.101625
0.108676
0.115502
0.118897
0.119464
0.104925
0.105244
0.0258476
0.0251057
0.0272829
0.0296247
0.0320677
0.0346012
0.0372095
0.0398726
0.0425672
0.0452675
0.0479464
0.0505779
0.0531383
0.0556079
0.0579719
0.0602229
0.0623579
0.0643803
0.0662967
0.0681173