/*--------------------------------*- C++ -*----------------------------------*\
| =========                 |                                                 |
| \\      /  F ield         | OpenFOAM: The Open Source CFD Toolbox           |
|  \\    /   O peration     | Version:  2406                                  |
|   \\  /    A nd           | Website:  www.openfoam.com                      |
|    \\/     M anipulation  |                                                 |
\*---------------------------------------------------------------------------*/
FoamFile
{
    version     2.0;
    format      ascii;
    arch        "LSB;label=32;scalar=64";
    class       volScalarField;
    location    "5";
    object      nut;
}
// * * * * * * * * * * * * * * * * * * * * * * * * * * * * * * * * * * * * * //

dimensions      [0 2 -1 0 0 0 0];

internalField   nonuniform List<scalar> 
38016
(
0.000109469
0.000107604
0.000105551
0.000103888
0.000102575
0.000101561
0.0001008
0.000100244
9.98525e-05
9.95896e-05
9.94242e-05
9.93305e-05
9.92877e-05
9.928e-05
9.92945e-05
9.93233e-05
9.93586e-05
9.93975e-05
9.94363e-05
9.94735e-05
9.95076e-05
9.95447e-05
9.95601e-05
9.96028e-05
9.96119e-05
9.96542e-05
9.96636e-05
9.96909e-05
9.97066e-05
9.97193e-05
9.97287e-05
9.97375e-05
9.9746e-05
9.97566e-05
9.97684e-05
9.97834e-05
9.98031e-05
9.98286e-05
9.98619e-05
9.99039e-05
9.9955e-05
0.000100016
0.000100088
0.000100175
0.000100288
0.000100411
0.000100871
0.000101865
0.000109593
0.000107733
0.000105665
0.000103987
0.000102659
0.000101631
0.000100856
0.000100289
9.98879e-05
9.9617e-05
9.94448e-05
9.93456e-05
9.92984e-05
9.92872e-05
9.92989e-05
9.93253e-05
9.93587e-05
9.93958e-05
9.94329e-05
9.94684e-05
9.95008e-05
9.95349e-05
9.95496e-05
9.95858e-05
9.95933e-05
9.96296e-05
9.96385e-05
9.96624e-05
9.96762e-05
9.96873e-05
9.96955e-05
9.97035e-05
9.97117e-05
9.97225e-05
9.97349e-05
9.9751e-05
9.97723e-05
9.97998e-05
9.98354e-05
9.98797e-05
9.99323e-05
9.99939e-05
0.000100065
0.000100148
0.000100256
0.000100368
0.000100839
0.00010188
0.000109728
0.000107873
0.000105789
0.000104094
0.000102749
0.000101706
0.000100917
0.000100337
9.99261e-05
9.96465e-05
9.94671e-05
9.93622e-05
9.93103e-05
9.92953e-05
9.9304e-05
9.93279e-05
9.93592e-05
9.93944e-05
9.94299e-05
9.94638e-05
9.94945e-05
9.95259e-05
9.95403e-05
9.95719e-05
9.95789e-05
9.961e-05
9.9619e-05
9.96395e-05
9.96519e-05
9.96622e-05
9.967e-05
9.96782e-05
9.96868e-05
9.96983e-05
9.97115e-05
9.97289e-05
9.97515e-05
9.97804e-05
9.98167e-05
9.98607e-05
9.99117e-05
9.99698e-05
0.000100035
0.00010011
0.000100207
0.000100305
0.000100785
0.000101847
0.000109875
0.000108025
0.000105922
0.000104209
0.000102846
0.000101786
0.000100982
0.00010039
9.99674e-05
9.96785e-05
9.94915e-05
9.93803e-05
9.93235e-05
9.93045e-05
9.931e-05
9.93313e-05
9.93604e-05
9.93938e-05
9.94276e-05
9.94598e-05
9.94889e-05
9.95179e-05
9.95319e-05
9.95598e-05
9.95664e-05
9.95941e-05
9.9603e-05
9.9622e-05
9.96337e-05
9.96435e-05
9.96512e-05
9.96594e-05
9.96683e-05
9.96803e-05
9.9694e-05
9.97119e-05
9.97351e-05
9.9764e-05
9.97995e-05
9.98414e-05
9.98889e-05
9.99417e-05
0.0001
0.000100068
0.000100154
0.000100247
0.00010073
0.000101776
0.000110033
0.000108188
0.000106066
0.000104332
0.000102949
0.000101872
0.000101052
0.000100446
0.000100012
9.9713e-05
9.95179e-05
9.94002e-05
9.9338e-05
9.93148e-05
9.93169e-05
9.93355e-05
9.93623e-05
9.93938e-05
9.94258e-05
9.94565e-05
9.94839e-05
9.95106e-05
9.95243e-05
9.95487e-05
9.95551e-05
9.95798e-05
9.95889e-05
9.96063e-05
9.96173e-05
9.96266e-05
9.96339e-05
9.96421e-05
9.9651e-05
9.96632e-05
9.96772e-05
9.96957e-05
9.97192e-05
9.97481e-05
9.97828e-05
9.98227e-05
9.98671e-05
9.99156e-05
9.99688e-05
0.00010003
0.000100107
0.000100199
0.000100677
0.000101684
0.000110202
0.000108362
0.000106219
0.000104463
0.00010306
0.000101964
0.000101127
0.000100506
0.00010006
9.97503e-05
9.95466e-05
9.94219e-05
9.93541e-05
9.93264e-05
9.93249e-05
9.93405e-05
9.9365e-05
9.93944e-05
9.94247e-05
9.94537e-05
9.94795e-05
9.95041e-05
9.95171e-05
9.95384e-05
9.95446e-05
9.95666e-05
9.9576e-05
9.9592e-05
9.96024e-05
9.96113e-05
9.96184e-05
9.96265e-05
9.96356e-05
9.96482e-05
9.96627e-05
9.96817e-05
9.97054e-05
9.97341e-05
9.97676e-05
9.98052e-05
9.98461e-05
9.98899e-05
9.99377e-05
9.99926e-05
0.00010006
0.000100151
0.000100614
0.000101583
0.000110383
0.000108549
0.000106382
0.000104603
0.000103179
0.000102062
0.000101208
0.000100571
0.000100111
9.97905e-05
9.95777e-05
9.94455e-05
9.93717e-05
9.93392e-05
9.93338e-05
9.93463e-05
9.93683e-05
9.93956e-05
9.9424e-05
9.94513e-05
9.94755e-05
9.94979e-05
9.95103e-05
9.95287e-05
9.95344e-05
9.9554e-05
9.95634e-05
9.95782e-05
9.95881e-05
9.95965e-05
9.96035e-05
9.96116e-05
9.96208e-05
9.96336e-05
9.96485e-05
9.96678e-05
9.96914e-05
9.97194e-05
9.97511e-05
9.97859e-05
9.9823e-05
9.98623e-05
9.99052e-05
9.99538e-05
0.000100012
0.000100102
0.000100549
0.000101499
0.000110574
0.000108747
0.000106556
0.000104752
0.000103304
0.000102166
0.000101293
0.00010064
0.000100166
9.98338e-05
9.96113e-05
9.94712e-05
9.93911e-05
9.93534e-05
9.9344e-05
9.93532e-05
9.93726e-05
9.93976e-05
9.9424e-05
9.94496e-05
9.94721e-05
9.94924e-05
9.9504e-05
9.95197e-05
9.95248e-05
9.95423e-05
9.95519e-05
9.95657e-05
9.9575e-05
9.95831e-05
9.95899e-05
9.95981e-05
9.96075e-05
9.96205e-05
9.96356e-05
9.96548e-05
9.96779e-05
9.97046e-05
9.97341e-05
9.97656e-05
9.97985e-05
9.98335e-05
9.98719e-05
9.99152e-05
9.99646e-05
0.000100055
0.000100485
0.000101437
0.000110778
0.000108957
0.00010674
0.000104911
0.000103438
0.000102278
0.000101384
0.000100714
0.000100225
9.98804e-05
9.96476e-05
9.94992e-05
9.94123e-05
9.93693e-05
9.93555e-05
9.93612e-05
9.93777e-05
9.94003e-05
9.94248e-05
9.94485e-05
9.94693e-05
9.94875e-05
9.94983e-05
9.95114e-05
9.95158e-05
9.95314e-05
9.95409e-05
9.95538e-05
9.95627e-05
9.95705e-05
9.95771e-05
9.95852e-05
9.95947e-05
9.96077e-05
9.96228e-05
9.96417e-05
9.96639e-05
9.96888e-05
9.97157e-05
9.97437e-05
9.97729e-05
9.98043e-05
9.98388e-05
9.98778e-05
9.99199e-05
0.00010001
0.000100425
0.000101399
0.000110992
0.000109179
0.000106935
0.000105078
0.000103579
0.000102395
0.000101481
0.000100792
0.000100288
9.99305e-05
9.96869e-05
9.95297e-05
9.94357e-05
9.93869e-05
9.93686e-05
9.93705e-05
9.9384e-05
9.94041e-05
9.94264e-05
9.94483e-05
9.94674e-05
9.94836e-05
9.94933e-05
9.9504e-05
9.95076e-05
9.95217e-05
9.95312e-05
9.95434e-05
9.95519e-05
9.95594e-05
9.95659e-05
9.9574e-05
9.95834e-05
9.95964e-05
9.96113e-05
9.96296e-05
9.96504e-05
9.96732e-05
9.96971e-05
9.97217e-05
9.97473e-05
9.97755e-05
9.98069e-05
9.98422e-05
9.98792e-05
9.99677e-05
0.00010037
0.00010138
0.000111217
0.000109414
0.000107141
0.000105255
0.000103729
0.00010252
0.000101584
0.000100876
0.000100356
9.99843e-05
9.97294e-05
9.95629e-05
9.94614e-05
9.94065e-05
9.93833e-05
9.93813e-05
9.93916e-05
9.9409e-05
9.94291e-05
9.9449e-05
9.94663e-05
9.94805e-05
9.94891e-05
9.94975e-05
9.95002e-05
9.95129e-05
9.95224e-05
9.95339e-05
9.9542e-05
9.95492e-05
9.95555e-05
9.95635e-05
9.95729e-05
9.95855e-05
9.96e-05
9.96173e-05
9.96365e-05
9.96569e-05
9.96779e-05
9.96993e-05
9.97222e-05
9.97476e-05
9.97768e-05
9.98092e-05
9.98427e-05
9.99292e-05
0.000100322
0.000101376
0.000111453
0.000109661
0.000107357
0.000105441
0.000103887
0.000102652
0.000101693
0.000100965
0.000100428
0.000100042
9.97753e-05
9.95991e-05
9.94896e-05
9.94283e-05
9.93999e-05
9.93937e-05
9.94006e-05
9.94153e-05
9.9433e-05
9.94509e-05
9.94663e-05
9.94786e-05
9.94859e-05
9.94922e-05
9.94939e-05
9.95055e-05
9.95149e-05
9.9526e-05
9.95338e-05
9.95408e-05
9.95469e-05
9.95548e-05
9.95639e-05
9.95762e-05
9.959e-05
9.9606e-05
9.96233e-05
9.96412e-05
9.96592e-05
9.96776e-05
9.9698e-05
9.97214e-05
9.97486e-05
9.97797e-05
9.98098e-05
9.9896e-05
0.000100277
0.000101382
0.000111701
0.00010992
0.000107585
0.000105637
0.000104053
0.000102792
0.000101809
0.00010106
0.000100505
0.000100104
9.98249e-05
9.96384e-05
9.95205e-05
9.94524e-05
9.94186e-05
9.94079e-05
9.94113e-05
9.9423e-05
9.94382e-05
9.9454e-05
9.94675e-05
9.94779e-05
9.94839e-05
9.94881e-05
9.94887e-05
9.94992e-05
9.95086e-05
9.95192e-05
9.95268e-05
9.95334e-05
9.95394e-05
9.9547e-05
9.95558e-05
9.95674e-05
9.95804e-05
9.95948e-05
9.961e-05
9.96254e-05
9.96407e-05
9.96568e-05
9.9675e-05
9.96969e-05
9.97229e-05
9.97537e-05
9.97818e-05
9.98674e-05
0.000100238
0.000101394
0.000111958
0.000110193
0.000107824
0.000105843
0.000104228
0.000102939
0.000101931
0.000101161
0.000100587
0.000100171
9.98784e-05
9.96811e-05
9.95544e-05
9.94792e-05
9.94395e-05
9.94242e-05
9.94238e-05
9.94323e-05
9.9445e-05
9.94586e-05
9.94702e-05
9.94786e-05
9.94832e-05
9.94854e-05
9.94848e-05
9.94946e-05
9.9504e-05
9.95142e-05
9.95216e-05
9.9528e-05
9.95337e-05
9.95411e-05
9.95495e-05
9.95603e-05
9.95721e-05
9.95848e-05
9.95978e-05
9.96106e-05
9.96233e-05
9.96373e-05
9.9654e-05
9.96745e-05
9.97005e-05
9.97312e-05
9.9759e-05
9.98444e-05
0.000100203
0.000101411
0.000112227
0.000110478
0.000108075
0.000106059
0.000104413
0.000103094
0.00010206
0.000101268
0.000100674
0.000100242
9.99359e-05
9.97274e-05
9.95915e-05
9.95087e-05
9.94629e-05
9.94426e-05
9.94382e-05
9.94435e-05
9.94535e-05
9.94647e-05
9.94743e-05
9.94807e-05
9.94839e-05
9.94841e-05
9.94823e-05
9.94913e-05
9.95007e-05
9.95106e-05
9.95177e-05
9.95238e-05
9.95292e-05
9.95362e-05
9.9544e-05
9.95538e-05
9.95643e-05
9.95752e-05
9.9586e-05
9.95964e-05
9.9607e-05
9.96191e-05
9.96346e-05
9.96546e-05
9.96815e-05
9.97132e-05
9.9742e-05
9.98284e-05
0.000100177
0.000101434
0.000112506
0.000110776
0.000108337
0.000106286
0.000104606
0.000103257
0.000102197
0.000101381
0.000100767
0.000100318
9.99979e-05
9.97776e-05
9.9632e-05
9.95413e-05
9.94891e-05
9.94636e-05
9.94549e-05
9.94568e-05
9.94639e-05
9.94728e-05
9.94803e-05
9.94847e-05
9.94862e-05
9.94844e-05
9.94813e-05
9.94898e-05
9.94991e-05
9.95089e-05
9.95158e-05
9.95215e-05
9.95267e-05
9.95332e-05
9.95403e-05
9.9549e-05
9.95579e-05
9.95669e-05
9.95755e-05
9.95835e-05
9.95921e-05
9.9603e-05
9.96174e-05
9.96377e-05
9.96661e-05
9.97007e-05
9.97304e-05
9.98212e-05
0.000100154
0.00010146
0.000112796
0.000111087
0.000108611
0.000106523
0.000104808
0.000103429
0.000102341
0.0001015
0.000100866
0.000100399
0.000100064
9.98318e-05
9.96761e-05
9.95771e-05
9.95181e-05
9.94871e-05
9.9474e-05
9.94722e-05
9.94764e-05
9.94827e-05
9.9488e-05
9.94903e-05
9.94902e-05
9.94865e-05
9.94819e-05
9.94898e-05
9.94991e-05
9.95086e-05
9.95153e-05
9.95207e-05
9.95254e-05
9.95313e-05
9.95375e-05
9.95449e-05
9.95523e-05
9.95593e-05
9.95658e-05
9.95717e-05
9.95788e-05
9.95884e-05
9.96026e-05
9.96238e-05
9.96552e-05
9.96932e-05
9.97258e-05
9.9821e-05
0.000100138
0.000101492
0.000113095
0.000111411
0.000108897
0.00010677
0.000105021
0.000103609
0.000102492
0.000101627
0.000100971
0.000100486
0.000100136
9.98905e-05
9.97242e-05
9.96164e-05
9.95503e-05
9.95135e-05
9.94957e-05
9.94901e-05
9.94911e-05
9.94948e-05
9.94979e-05
9.94981e-05
9.94962e-05
9.94905e-05
9.94844e-05
9.94918e-05
9.95011e-05
9.95103e-05
9.95168e-05
9.95218e-05
9.95261e-05
9.95313e-05
9.95365e-05
9.95426e-05
9.95482e-05
9.95533e-05
9.95576e-05
9.95617e-05
9.95673e-05
9.95762e-05
9.95904e-05
9.96134e-05
9.96488e-05
9.96915e-05
9.97284e-05
9.98293e-05
0.000100127
0.00010153
0.000113404
0.000111748
0.000109195
0.000107029
0.000105243
0.000103797
0.000102651
0.000101761
0.000101083
0.000100579
0.000100212
9.99537e-05
9.97763e-05
9.96594e-05
9.95859e-05
9.95429e-05
9.95202e-05
9.95105e-05
9.95082e-05
9.95092e-05
9.95098e-05
9.95079e-05
9.95041e-05
9.94963e-05
9.94885e-05
9.94955e-05
9.95046e-05
9.95136e-05
9.95197e-05
9.95243e-05
9.95281e-05
9.95324e-05
9.95366e-05
9.95411e-05
9.9545e-05
9.95483e-05
9.95506e-05
9.95531e-05
9.95576e-05
9.9566e-05
9.95809e-05
9.96064e-05
9.96474e-05
9.96961e-05
9.97386e-05
9.98465e-05
0.000100124
0.000101573
0.000113723
0.000112099
0.000109505
0.000107298
0.000105474
0.000103995
0.000102819
0.000101901
0.000101201
0.000100677
0.000100294
0.000100022
9.98328e-05
9.97064e-05
9.9625e-05
9.95757e-05
9.95478e-05
9.95338e-05
9.95281e-05
9.95261e-05
9.95242e-05
9.952e-05
9.95142e-05
9.95043e-05
9.94946e-05
9.95011e-05
9.95101e-05
9.95188e-05
9.95246e-05
9.95287e-05
9.9532e-05
9.95354e-05
9.95383e-05
9.95413e-05
9.95435e-05
9.95448e-05
9.95453e-05
9.95462e-05
9.95499e-05
9.95579e-05
9.95743e-05
9.96031e-05
9.96513e-05
9.97071e-05
9.97569e-05
9.98726e-05
0.000100128
0.000101627
0.000114052
0.000112463
0.000109827
0.000107579
0.000105716
0.000104202
0.000102994
0.00010205
0.000101325
0.000100781
0.000100382
0.000100095
9.98938e-05
9.97574e-05
9.96679e-05
9.96118e-05
9.95785e-05
9.956e-05
9.95506e-05
9.95455e-05
9.95411e-05
9.95344e-05
9.95264e-05
9.95143e-05
9.95026e-05
9.95085e-05
9.95172e-05
9.95256e-05
9.95309e-05
9.95344e-05
9.9537e-05
9.95394e-05
9.95411e-05
9.95425e-05
9.9543e-05
9.95425e-05
9.95413e-05
9.9541e-05
9.95439e-05
9.95522e-05
9.95705e-05
9.96036e-05
9.96606e-05
9.97253e-05
9.97843e-05
9.99072e-05
0.000100144
0.000101698
0.000114389
0.000112841
0.000110162
0.000107871
0.000105968
0.000104418
0.000103178
0.000102205
0.000101457
0.000100892
0.000100475
0.000100173
9.99595e-05
9.98128e-05
9.97147e-05
9.96516e-05
9.96125e-05
9.95894e-05
9.95761e-05
9.95678e-05
9.95605e-05
9.95514e-05
9.9541e-05
9.95265e-05
9.95126e-05
9.95179e-05
9.95263e-05
9.95342e-05
9.95391e-05
9.9542e-05
9.95438e-05
9.95451e-05
9.95454e-05
9.95452e-05
9.95441e-05
9.95419e-05
9.95391e-05
9.95375e-05
9.95401e-05
9.95488e-05
9.95697e-05
9.96082e-05
9.96755e-05
9.97511e-05
9.98195e-05
9.99521e-05
0.000100162
0.000101779
0.000114735
0.000113232
0.00011051
0.000108174
0.00010623
0.000104643
0.00010337
0.000102369
0.000101596
0.000101009
0.000100574
0.000100256
0.00010003
9.98726e-05
9.97656e-05
9.96951e-05
9.96501e-05
9.9622e-05
9.96046e-05
9.95929e-05
9.95826e-05
9.95708e-05
9.95579e-05
9.95409e-05
9.95245e-05
9.95289e-05
9.95369e-05
9.95443e-05
9.95485e-05
9.95507e-05
9.95516e-05
9.95517e-05
9.95506e-05
9.95489e-05
9.95463e-05
9.95425e-05
9.95382e-05
9.95356e-05
9.9538e-05
9.95476e-05
9.95718e-05
9.9617e-05
9.96965e-05
9.97849e-05
9.98655e-05
0.000100006
0.000100194
0.000101878
0.000115089
0.000113637
0.00011087
0.000108489
0.000106503
0.000104878
0.000103571
0.00010254
0.000101741
0.000101133
0.000100679
0.000100345
0.000100106
9.9937e-05
9.98208e-05
9.97426e-05
9.96913e-05
9.9658e-05
9.96363e-05
9.9621e-05
9.96076e-05
9.95929e-05
9.95773e-05
9.95576e-05
9.95385e-05
9.95419e-05
9.95493e-05
9.9556e-05
9.95596e-05
9.95609e-05
9.95609e-05
9.95598e-05
9.95573e-05
9.9554e-05
9.95499e-05
9.95446e-05
9.95389e-05
9.95354e-05
9.95376e-05
9.95485e-05
9.9577e-05
9.96303e-05
9.97241e-05
9.98286e-05
9.99213e-05
0.000100072
0.000100229
0.000101989
0.000115451
0.000114056
0.000111243
0.000108815
0.000106786
0.000105122
0.000103781
0.00010272
0.000101895
0.000101264
0.00010079
0.00010044
0.000100186
0.000100006
9.98802e-05
9.97941e-05
9.97362e-05
9.96974e-05
9.96712e-05
9.9652e-05
9.96353e-05
9.96176e-05
9.9599e-05
9.95764e-05
9.95542e-05
9.95564e-05
9.95631e-05
9.9569e-05
9.95717e-05
9.9572e-05
9.95709e-05
9.95685e-05
9.95646e-05
9.956e-05
9.95546e-05
9.95478e-05
9.9541e-05
9.95365e-05
9.9539e-05
9.95518e-05
9.95852e-05
9.96488e-05
9.97594e-05
9.98828e-05
9.99898e-05
0.00010015
0.000100273
0.000102118
0.00011582
0.000114489
0.000111628
0.000109153
0.00010708
0.000105376
0.000104
0.000102908
0.000102055
0.000101401
0.000100907
0.00010054
0.000100272
0.00010008
9.99442e-05
9.98497e-05
9.97848e-05
9.97404e-05
9.97094e-05
9.96862e-05
9.96658e-05
9.96449e-05
9.96231e-05
9.95974e-05
9.95719e-05
9.95727e-05
9.95784e-05
9.95833e-05
9.95851e-05
9.95844e-05
9.95821e-05
9.95784e-05
9.95731e-05
9.95672e-05
9.95605e-05
9.95524e-05
9.95444e-05
9.95394e-05
9.95422e-05
9.95575e-05
9.95968e-05
9.96723e-05
9.98024e-05
9.99478e-05
0.000100071
0.00010024
0.000100325
0.000102265
0.000116197
0.000114935
0.000112027
0.000109503
0.000107385
0.00010564
0.000104228
0.000103103
0.000102223
0.000101545
0.000101031
0.000100646
0.000100364
0.000100159
0.000100012
9.99093e-05
9.98373e-05
9.97868e-05
9.97508e-05
9.97233e-05
9.96991e-05
9.96747e-05
9.96495e-05
9.96204e-05
9.95912e-05
9.95902e-05
9.95948e-05
9.95985e-05
9.95991e-05
9.95972e-05
9.95937e-05
9.95886e-05
9.9582e-05
9.95749e-05
9.95673e-05
9.95582e-05
9.95492e-05
9.95435e-05
9.95473e-05
9.95656e-05
9.96122e-05
9.97016e-05
9.98548e-05
0.000100025
0.000100167
0.000100343
0.000100386
0.000102438
0.000116579
0.000115396
0.000112439
0.000109865
0.000107701
0.000105914
0.000104464
0.000103307
0.000102399
0.000101696
0.00010116
0.000100758
0.00010046
0.000100242
0.000100085
9.99731e-05
9.98936e-05
9.98368e-05
9.97955e-05
9.97634e-05
9.97352e-05
9.97071e-05
9.96781e-05
9.96454e-05
9.96122e-05
9.96092e-05
9.96123e-05
9.96148e-05
9.96141e-05
9.96109e-05
9.9606e-05
9.95996e-05
9.95918e-05
9.95837e-05
9.95752e-05
9.9565e-05
9.95553e-05
9.95492e-05
9.95542e-05
9.95765e-05
9.96316e-05
9.97375e-05
9.99171e-05
0.000100116
0.000100279
0.000100462
0.000100452
0.000102624
0.000116967
0.00011587
0.000112863
0.000110238
0.000108027
0.000106198
0.00010471
0.00010352
0.000102582
0.000101854
0.000101296
0.000100876
0.000100562
0.000100331
0.000100162
0.000100041
9.99535e-05
9.98901e-05
9.98432e-05
9.98063e-05
9.97738e-05
9.97418e-05
9.97089e-05
9.96721e-05
9.96346e-05
9.96292e-05
9.96306e-05
9.96315e-05
9.96293e-05
9.96247e-05
9.96184e-05
9.96107e-05
9.96018e-05
9.95928e-05
9.95837e-05
9.9573e-05
9.95625e-05
9.95565e-05
9.95634e-05
9.95905e-05
9.9656e-05
9.97805e-05
9.99913e-05
0.000100222
0.000100414
0.000100596
0.000100536
0.000102824
0.00011736
0.000116358
0.000113301
0.000110624
0.000108364
0.000106491
0.000104964
0.00010374
0.000102772
0.000102018
0.000101438
0.000100999
0.000100668
0.000100424
0.000100244
0.000100112
0.000100017
9.99468e-05
9.9894e-05
9.98521e-05
9.9815e-05
9.97788e-05
9.97416e-05
9.97006e-05
9.96584e-05
9.96501e-05
9.96497e-05
9.96489e-05
9.96451e-05
9.96389e-05
9.96312e-05
9.96222e-05
9.96122e-05
9.96026e-05
9.95931e-05
9.95819e-05
9.95713e-05
9.95654e-05
9.95751e-05
9.96081e-05
9.96859e-05
9.98324e-05
0.00010008
0.000100348
0.00010057
0.000100754
0.000100621
0.00010303
0.000117757
0.00011686
0.000113752
0.000111021
0.000108712
0.000106794
0.000105228
0.000103968
0.00010297
0.000102189
0.000101587
0.000101127
0.00010078
0.000100521
0.000100329
0.000100188
0.000100084
0.000100006
9.99476e-05
9.99003e-05
9.98584e-05
9.98177e-05
9.9776e-05
9.97304e-05
9.96831e-05
9.96716e-05
9.9669e-05
9.96662e-05
9.96606e-05
9.96528e-05
9.96436e-05
9.96334e-05
9.96225e-05
9.96125e-05
9.9603e-05
9.95917e-05
9.9581e-05
9.95763e-05
9.95895e-05
9.96297e-05
9.97221e-05
9.98941e-05
0.000100184
0.000100494
0.000100753
0.000100933
0.00010073
0.000103258
0.000118158
0.000117376
0.000114216
0.000111431
0.000109071
0.000107108
0.0001055
0.000104205
0.000103175
0.000102367
0.00010174
0.00010126
0.000100896
0.000100623
0.000100418
0.000100267
0.000100154
0.000100069
0.000100004
9.99509e-05
9.99039e-05
9.98585e-05
9.98119e-05
9.97614e-05
9.97087e-05
9.96937e-05
9.96886e-05
9.96837e-05
9.96761e-05
9.96666e-05
9.9656e-05
9.96446e-05
9.9633e-05
9.96227e-05
9.96132e-05
9.96023e-05
9.95921e-05
9.95885e-05
9.96067e-05
9.96551e-05
9.97651e-05
9.99656e-05
0.000100305
0.000100662
0.000100961
0.000101134
0.000100843
0.000103507
0.000118561
0.000117905
0.000114694
0.000111852
0.000109441
0.000107431
0.000105781
0.000104449
0.000103386
0.00010255
0.0001019
0.000101399
0.000101017
0.000100728
0.000100511
0.000100349
0.000100227
0.000100134
0.000100062
0.000100003
9.99511e-05
9.99007e-05
9.9849e-05
9.97934e-05
9.97349e-05
9.97159e-05
9.97081e-05
9.97007e-05
9.96911e-05
9.96797e-05
9.96677e-05
9.96552e-05
9.96431e-05
9.96328e-05
9.96239e-05
9.96133e-05
9.9604e-05
9.96025e-05
9.96264e-05
9.96849e-05
9.9814e-05
0.000100048
0.000100442
0.000100852
0.000101193
0.000101359
0.000100971
0.000103782
0.000118967
0.000118449
0.000115184
0.000112286
0.000109822
0.000107763
0.000106071
0.000104701
0.000103605
0.00010274
0.000102064
0.000101542
0.000101142
0.000100838
0.000100607
0.000100434
0.000100302
0.000100202
0.000100123
0.000100058
9.99998e-05
9.99441e-05
9.98871e-05
9.9826e-05
9.97614e-05
9.9738e-05
9.97272e-05
9.97173e-05
9.97056e-05
9.96923e-05
9.9679e-05
9.96655e-05
9.9653e-05
9.9643e-05
9.96347e-05
9.96252e-05
9.9617e-05
9.96183e-05
9.96486e-05
9.97188e-05
9.9869e-05
0.00010014
0.000100593
0.000101065
0.000101448
0.000101607
0.000101113
0.000104074
0.000119372
0.000119006
0.000115689
0.000112732
0.000110213
0.000108106
0.00010637
0.00010496
0.00010383
0.000102935
0.000102234
0.00010169
0.00010127
0.00010095
0.000100706
0.000100521
0.00010038
0.000100271
0.000100185
0.000100113
0.00010005
9.99884e-05
9.99258e-05
9.9859e-05
9.9788e-05
9.97598e-05
9.97457e-05
9.97331e-05
9.97191e-05
9.97039e-05
9.96893e-05
9.96751e-05
9.96625e-05
9.9653e-05
9.96458e-05
9.96374e-05
9.96313e-05
9.96358e-05
9.96739e-05
9.97574e-05
9.99306e-05
0.000100245
0.000100763
0.000101304
0.00010173
0.00010188
0.000101267
0.000104394
0.000119778
0.000119577
0.000116206
0.00011319
0.000110616
0.000108458
0.000106676
0.000105227
0.000104062
0.000103136
0.000102408
0.000101841
0.000101402
0.000101065
0.000100807
0.00010061
0.000100459
0.000100341
0.000100248
0.00010017
0.0001001
0.000100033
9.99648e-05
9.9892e-05
9.98144e-05
9.97811e-05
9.97635e-05
9.9748e-05
9.97318e-05
9.97147e-05
9.96989e-05
9.96841e-05
9.96717e-05
9.9663e-05
9.96571e-05
9.96506e-05
9.96465e-05
9.9656e-05
9.97021e-05
9.98017e-05
9.99996e-05
0.000100362
0.000100951
0.000101572
0.000102042
0.000102191
0.000101434
0.000104707
0.000120183
0.000120161
0.000116737
0.00011366
0.000111029
0.000108819
0.000106992
0.0001055
0.000104299
0.000103342
0.000102587
0.000101996
0.000101537
0.000101183
0.000100911
0.000100701
0.00010054
0.000100413
0.000100312
0.000100227
0.000100151
0.000100078
0.000100004
9.99247e-05
9.98402e-05
9.98014e-05
9.97801e-05
9.97617e-05
9.97431e-05
9.97244e-05
9.97075e-05
9.96924e-05
9.96805e-05
9.96731e-05
9.96688e-05
9.96649e-05
9.96639e-05
9.96789e-05
9.97351e-05
9.98523e-05
0.000100079
0.000100495
0.000101162
0.000101873
0.000102395
0.000102529
0.000101644
0.000105063
0.000120585
0.000120759
0.000117281
0.000114143
0.000111454
0.000109191
0.000107315
0.000105781
0.000104542
0.000103552
0.000102769
0.000102154
0.000101674
0.000101302
0.000101015
0.000100793
0.000100621
0.000100485
0.000100376
0.000100284
0.000100201
0.000100123
0.000100042
9.99568e-05
9.98653e-05
9.98208e-05
9.97956e-05
9.97741e-05
9.97533e-05
9.9733e-05
9.97152e-05
9.97002e-05
9.96893e-05
9.96835e-05
9.96816e-05
9.96808e-05
9.96841e-05
9.97062e-05
9.97742e-05
9.99119e-05
0.00010017
0.000100648
0.0001014
0.000102212
0.000102782
0.000102902
0.000101865
0.000105445
0.000120983
0.000121371
0.000117839
0.000114637
0.000111889
0.000109571
0.000107646
0.000106069
0.000104791
0.000103767
0.000102955
0.000102314
0.000101813
0.000101423
0.000101121
0.000100885
0.000100702
0.000100557
0.000100439
0.00010034
0.000100251
0.000100166
0.00010008
9.9988e-05
9.98894e-05
9.98389e-05
9.98097e-05
9.97851e-05
9.97621e-05
9.97403e-05
9.9722e-05
9.97074e-05
9.96979e-05
9.96944e-05
9.96956e-05
9.96994e-05
9.97083e-05
9.97392e-05
9.98214e-05
9.99835e-05
0.000100277
0.000100824
0.000101669
0.000102597
0.00010322
0.000103328
0.000102134
0.000105886
0.000121376
0.000121996
0.000118411
0.000115144
0.000112335
0.000109961
0.000107986
0.000106363
0.000105045
0.000103986
0.000103143
0.000102477
0.000101954
0.000101545
0.000101226
0.000100978
0.000100783
0.000100628
0.000100502
0.000100396
0.0001003
0.000100209
0.000100116
0.000100018
9.99121e-05
9.98555e-05
9.98222e-05
9.97946e-05
9.97695e-05
9.97465e-05
9.9728e-05
9.97144e-05
9.97068e-05
9.97061e-05
9.97115e-05
9.97211e-05
9.97373e-05
9.97795e-05
9.98788e-05
0.000100069
0.000100403
0.000101029
0.000101978
0.000103034
0.000103717
0.000103805
0.000102404
0.000106316
0.000121764
0.000122634
0.000118996
0.000115664
0.000112792
0.000110361
0.000108333
0.000106663
0.000105304
0.000104209
0.000103335
0.000102642
0.000102095
0.000101667
0.000101332
0.000101069
0.000100863
0.000100698
0.000100564
0.00010045
0.000100347
0.00010025
0.000100151
0.000100046
9.99333e-05
9.98705e-05
9.98329e-05
9.98024e-05
9.97754e-05
9.97516e-05
9.97333e-05
9.9721e-05
9.97161e-05
9.97191e-05
9.97297e-05
9.97468e-05
9.9772e-05
9.98277e-05
9.99467e-05
0.000100169
0.000100548
0.000101259
0.000102323
0.000103518
0.000104276
0.000104364
0.000102725
0.000106798
0.000122143
0.000123285
0.000119596
0.000116196
0.000113261
0.00011077
0.000108688
0.00010697
0.000105568
0.000104436
0.000103529
0.000102808
0.000102238
0.000101789
0.000101437
0.00010116
0.000100942
0.000100767
0.000100623
0.000100502
0.000100393
0.000100289
0.000100184
0.000100073
9.99528e-05
9.98837e-05
9.9842e-05
9.98086e-05
9.97801e-05
9.97557e-05
9.9738e-05
9.97277e-05
9.97261e-05
9.97336e-05
9.97508e-05
9.97765e-05
9.98126e-05
9.98835e-05
0.000100025
0.000100282
0.000100713
0.000101515
0.00010271
0.000104044
0.000104886
0.000104926
0.000103026
0.000107326
0.000122514
0.00012395
0.000120209
0.000116742
0.00011374
0.000111189
0.000109051
0.000107283
0.000105837
0.000104665
0.000103725
0.000102974
0.00010238
0.00010191
0.000101541
0.000101249
0.000101018
0.000100833
0.000100681
0.000100552
0.000100436
0.000100326
0.000100215
0.000100097
9.99703e-05
9.9895e-05
9.98491e-05
9.98131e-05
9.97833e-05
9.97589e-05
9.97423e-05
9.97347e-05
9.9737e-05
9.97502e-05
9.97746e-05
9.98112e-05
9.98593e-05
9.99473e-05
0.000100114
0.000100407
0.000100896
0.000101791
0.000103128
0.000104601
0.000105534
0.000105552
0.000103391
0.000107886
0.000122874
0.000124627
0.000120836
0.0001173
0.000114231
0.000111617
0.000109422
0.000107602
0.00010611
0.000104898
0.000103922
0.000103142
0.000102522
0.000102031
0.000101643
0.000101336
0.000101092
0.000100896
0.000100736
0.000100599
0.000100476
0.00010036
0.000100243
0.000100119
9.99858e-05
9.99044e-05
9.98545e-05
9.98161e-05
9.97853e-05
9.97613e-05
9.97465e-05
9.97421e-05
9.97494e-05
9.97689e-05
9.98023e-05
9.98499e-05
9.99135e-05
0.000100019
0.000100216
0.000100546
0.000101103
0.000102095
0.000103592
0.000105196
0.000106239
0.000106209
0.000103755
0.000108439
0.000123222
0.000125317
0.000121478
0.000117871
0.000114734
0.000112055
0.000109801
0.000107928
0.000106388
0.000105134
0.000104121
0.00010331
0.000102663
0.00010215
0.000101743
0.00010142
0.000101164
0.000100957
0.000100787
0.000100643
0.000100513
0.000100391
0.000100268
0.000100139
9.9999e-05
9.99117e-05
9.98579e-05
9.98175e-05
9.97861e-05
9.9763e-05
9.97506e-05
9.97504e-05
9.97634e-05
9.97903e-05
9.98337e-05
9.98944e-05
9.99743e-05
0.0001001
0.000100328
0.000100703
0.000101328
0.000102426
0.000104077
0.000105825
0.00010696
0.000106902
0.000104159
0.000108968
0.000123556
0.000126019
0.000122134
0.000118455
0.000115248
0.000112504
0.000110188
0.000108259
0.00010667
0.000105372
0.000104322
0.000103478
0.000102804
0.000102267
0.000101841
0.000101502
0.000101232
0.000101014
0.000100835
0.000100683
0.000100547
0.000100419
0.000100291
0.000100156
0.00010001
9.9917e-05
9.98596e-05
9.98174e-05
9.9786e-05
9.97644e-05
9.97551e-05
9.97597e-05
9.97794e-05
9.98149e-05
9.98693e-05
9.99448e-05
0.000100043
0.000100193
0.000100454
0.000100879
0.000101579
0.000102792
0.000104601
0.000106502
0.00010773
0.00010766
0.000104561
0.000109483
0.000123874
0.000126734
0.000122804
0.000119053
0.000115775
0.000112962
0.000110584
0.000108597
0.000106956
0.000105614
0.000104524
0.000103646
0.000102943
0.000102382
0.000101936
0.000101581
0.000101297
0.000101068
0.000100879
0.00010072
0.000100577
0.000100443
0.00010031
0.00010017
0.000100019
9.99203e-05
9.98595e-05
9.98159e-05
9.9785e-05
9.97655e-05
9.976e-05
9.97704e-05
9.97978e-05
9.9843e-05
9.99095e-05
0.000100001
0.000100121
0.000100297
0.000100596
0.000101077
0.00010186
0.000103194
0.000105167
0.000107226
0.000108551
0.000108483
0.00010498
0.000109958
0.000124175
0.000127461
0.00012349
0.000119665
0.000116314
0.000113431
0.000110988
0.000108942
0.000107248
0.000105858
0.000104728
0.000103815
0.000103082
0.000102496
0.000102029
0.000101656
0.000101359
0.000101118
0.00010092
0.000100752
0.000100603
0.000100464
0.000100326
0.000100181
0.000100025
9.99216e-05
9.98578e-05
9.98132e-05
9.97832e-05
9.97665e-05
9.97657e-05
9.97827e-05
9.98189e-05
9.9875e-05
9.99547e-05
0.000100064
0.000100207
0.000100412
0.000100753
0.000101295
0.000102167
0.000103629
0.000105764
0.000107987
0.000109403
0.000109337
0.00010542
0.000110363
0.000124457
0.000128199
0.00012419
0.000120291
0.000116865
0.000113911
0.000111401
0.000109294
0.000107544
0.000106106
0.000104933
0.000103984
0.00010322
0.000102608
0.000102119
0.000101729
0.000101416
0.000101164
0.000100956
0.000100781
0.000100626
0.000100481
0.000100338
0.000100189
0.000100029
9.99211e-05
9.98546e-05
9.98095e-05
9.9781e-05
9.97677e-05
9.97723e-05
9.97969e-05
9.98429e-05
9.9911e-05
0.000100005
0.000100134
0.000100302
0.000100539
0.000100924
0.000101532
0.000102498
0.000104091
0.000106385
0.000108772
0.000110268
0.000110169
0.000105893
0.000110683
0.000124718
0.000128948
0.000124905
0.000120932
0.00011743
0.000114403
0.000111824
0.000109653
0.000107846
0.000106357
0.00010514
0.000104153
0.000103356
0.000102718
0.000102206
0.000101798
0.000101471
0.000101206
0.000100989
0.000100806
0.000100644
0.000100495
0.000100347
0.000100194
0.00010003
9.99188e-05
9.985e-05
9.98049e-05
9.97783e-05
9.97692e-05
9.97801e-05
9.98132e-05
9.98701e-05
9.99514e-05
0.000100061
0.00010021
0.000100406
0.000100679
0.000101111
0.00010179
0.000102857
0.000104585
0.000107036
0.000109589
0.000111165
0.000111022
0.000106376
0.000110974
0.000124957
0.000129708
0.000125636
0.000121587
0.000118008
0.000114906
0.000112256
0.00011002
0.000108154
0.000106612
0.000105349
0.000104323
0.000103493
0.000102826
0.000102292
0.000101864
0.000101521
0.000101244
0.000101017
0.000100826
0.000100659
0.000100505
0.000100353
0.000100197
0.00010003
9.9915e-05
9.98443e-05
9.97995e-05
9.97756e-05
9.97712e-05
9.97892e-05
9.98318e-05
9.99007e-05
9.99965e-05
0.000100123
0.000100293
0.00010052
0.000100831
0.000101314
0.00010207
0.000103245
0.000105112
0.000107722
0.000110435
0.000112088
0.000111898
0.000106878
0.000111278
0.000125171