/*--------------------------------*- C++ -*----------------------------------*\
| =========                 |                                                 |
| \\      /  F ield         | OpenFOAM: The Open Source CFD Toolbox           |
|  \\    /   O peration     | Version:  2406                                  |
|   \\  /    A nd           | Website:  www.openfoam.com                      |
|    \\/     M anipulation  |                                                 |
\*---------------------------------------------------------------------------*/
FoamFile
{
    version     2.0;
    format      ascii;
    arch        "LSB;label=32;scalar=64";
    class       volScalarField;
    location    "5";
    object      omega;
}
// * * * * * * * * * * * * * * * * * * * * * * * * * * * * * * * * * * * * * //

dimensions      [0 0 -1 0 0 0 0];

internalField   nonuniform List<scalar> 
38016
(
385.814
420.171
461.959
504.343
546.606
588.071
628.108
666.161
701.788
734.668
764.607
791.538
815.485
836.57
854.949
870.862
884.5
896.148
906.01
914.31
921.229
927.148
931.409
935.717
938.161
941.239
942.981
945.109
946.706
948.068
949.196
950.183
951.041
951.85
952.568
953.254
953.941
954.649
955.408
956.222
957.083
958.005
958.984
960.052
961.284
962.51
966.182
973.812
384.611
418.662
460.278
502.52
544.672
586.059
626.05
664.088
699.723
732.63
762.608
789.583
813.573
834.692
853.093
869.009
882.627
894.229
904.013
912.197
918.958
924.64
928.688
932.571
934.691
937.289
938.794
940.65
942.07
943.3
944.332
945.252
946.067
946.854
947.566
948.264
948.974
949.719
950.517
951.369
952.268
953.216
954.208
955.265
956.46
957.598
961.317
969.259
383.234
416.965
458.404
500.5
542.539
583.849
623.797
661.822
697.471
730.412
760.435
787.463
811.501
832.663
851.092
867.018
880.624
892.185
901.897
909.972
916.58
922.035
925.875
929.366
931.156
933.298
934.56
936.155
937.404
938.508
939.449
940.309
941.084
941.851
942.555
943.262
943.99
944.755
945.572
946.432
947.327
948.253
949.205
950.197
951.299
952.308
956.058
964.08
381.689
415.088
456.347
498.295
540.222
581.456
621.364
659.381
695.049
728.029
758.105
785.19
809.286
830.497
848.962
864.906
878.507
890.036
899.685
907.66
914.126
919.37
923.01
926.137
927.607
929.328
930.359
931.718
932.811
933.799
934.658
935.461
936.199
936.945
937.641
938.351
939.087
939.859
940.675
941.52
942.385
943.264
944.151
945.065
946.065
947.019
950.729
958.587
379.981
413.033
454.108
495.907
537.72
578.878
618.747
656.759
692.45
725.474
755.607
782.756
806.915
828.18
846.688
862.656
876.26
887.763
897.357
905.241
911.574
916.618
920.065
922.847
924.006
925.327
926.134
927.269
928.21
929.086
929.864
930.612
931.313
932.038
932.723
933.435
934.174
934.949
935.756
936.579
937.412
938.243
939.077
939.926
940.849
941.752
945.402
952.915
378.113
410.803
451.687
493.33
535.027
576.107
615.936
653.943
689.659
722.729
752.924
780.14
804.366
825.692
844.247
860.244
873.856
885.34
894.883
902.681
908.888
913.741
916.996
919.447
920.295
921.232
921.815
922.735
923.532
924.301
925.003
925.698
926.365
927.071
927.748
928.461
929.201
929.972
930.764
931.557
932.348
933.126
933.903
934.698
935.518
936.413
939.918
947.133
376.088
408.398
449.083
490.565
532.139
573.138
612.925
650.927
686.667
719.786
750.043
777.331
801.627
823.016
841.622
857.652
871.275
882.743
892.239
899.955
906.038
910.706
913.767
915.895
916.428
916.987
917.344
918.054
918.707
919.369
919.995
920.638
921.271
921.955
922.623
923.331
924.066
924.824
925.591
926.348
927.092
927.819
928.553
929.284
930.036
930.907
934.278
941.333
373.913
405.823
446.3
487.614
529.06
569.973
609.716
647.71
683.474
716.641
746.963
774.322
798.691
820.146
838.806
854.872
868.509
879.965
889.418
897.056
903.02
907.509
910.375
912.189
912.404
912.597
912.726
913.233
913.744
914.303
914.856
915.449
916.048
916.709
917.367
918.066
918.788
919.525
920.257
920.967
921.658
922.335
923.024
923.707
924.386
925.254
928.499
935.552
371.592
403.084
443.345
484.483
525.794
566.616
606.31
644.293
680.079
713.293
743.678
771.11
795.553
817.075
835.791
851.895
865.55
876.996
886.41
893.974
899.823
904.138
906.812
908.32
908.214
908.049
907.95
908.257
908.629
909.085
909.564
910.106
910.671
911.308
911.95
912.633
913.335
914.041
914.733
915.395
916.037
916.677
917.323
917.972
918.586
919.473
922.588
929.797
369.132
400.187
440.223
481.177
522.346
563.071
602.711
640.679
676.483
709.742
740.189
767.693
792.209
813.8
832.573
848.718
862.393
873.833
883.213
890.707
896.446
900.598
903.078
904.293
903.868
903.357
903.031
903.146
903.384
903.74
904.149
904.642
905.172
905.782
906.407
907.069
907.743
908.411
909.055
909.663
910.259
910.86
911.476
912.083
912.672
913.551
916.574
924.06
366.539
397.138
436.94
477.701
518.722
559.343
598.922
636.87
672.688
705.987
736.494
764.067
788.655
810.314
829.145
845.331
859.03
870.467
879.816
887.246
892.882
896.876
899.17
900.1
899.36
898.513
897.961
897.89
897.996
898.253
898.592
899.036
899.529
900.11
900.711
901.345
901.985
902.611
903.206
903.766
904.327
904.89
905.486
906.058
906.645
907.504
910.496
918.271
363.82
393.942
433.502
474.063
514.927
555.436
594.947
632.868
668.694
702.029
732.591
760.23
784.888
806.614
825.503
841.732
855.456
866.895
876.218
883.59
889.13
892.978
895.09
895.75
894.699
893.531
892.759
892.51
892.489
892.653
892.925
893.319
893.776
894.325
894.9
895.501
896.099
896.677
897.219
897.732
898.256
898.791
899.355
899.925
900.485
901.372
904.263
912.381
360.98
390.606
429.915
470.268
510.966
551.355
590.791
628.677
664.504
697.867
728.478
756.179
780.904
802.694
821.64
837.913
851.663
863.107
872.409
879.731
885.183
888.894
890.834
891.235
889.882
888.405
887.418
886.998
886.853
886.925
887.131
887.476
887.895
888.408
888.95
889.511
890.065
890.594
891.088
891.563
892.055
892.566
893.109
893.679
894.231
895.124
897.935
906.401
358.026
387.138
426.186
466.322
506.846
547.106
586.457
624.3
660.119
693.503
724.156
751.913
776.7
798.552
817.553
833.87
847.65
859.103
868.391
875.67
881.044
884.631
886.407
886.566
884.923
883.152
881.958
881.377
881.115
881.101
881.244
881.541
881.921
882.396
882.901
883.418
883.924
884.4
884.845
885.283
885.748
886.225
886.772
887.328
887.903
888.789
891.522
900.36
354.966
383.543
422.322
462.232
502.573
542.694
581.95
619.74
655.541
688.937
719.625
747.43
772.274
794.183
813.237
829.598
843.409
854.875
864.155
871.399
876.706
880.181
881.809
881.74
879.818
877.77
876.378
875.642
875.269
875.17
875.252
875.501
875.84
876.273
876.735
877.206
877.662
878.088
878.495
878.896
879.34
879.796
880.351
880.906
881.518
882.397
885.136
894.282
351.807
379.828
418.331
458.005
498.154
538.125
577.276
615.001
650.775
684.173
714.885
742.731
767.624
789.586
808.691
825.095
838.94
850.424
859.703
866.923
872.175
875.555
877.044
876.769
874.585
872.278
870.698
869.82
869.343
869.166
869.191
869.393
869.691
870.079
870.495
870.915
871.32
871.695
872.058
872.435
872.851
873.3
873.858
874.443
875.066
875.999
878.619
888.087
348.554
376.001
414.218
453.649
493.594
533.406
572.44
610.089
645.822
679.211
709.938
737.815
762.75
784.759
803.911
820.358
834.238
845.744
855.03
862.236
867.446
870.746
872.117
871.653
869.224
866.676
864.921
863.908
863.334
863.083
863.053
863.208
863.461
863.802
864.169
864.539
864.894
865.223
865.558
865.902
866.307
866.749
867.333
867.93
868.603
869.555
872.089
881.873
345.217
372.068
409.991
449.17
488.902
528.543
567.449
605.009
640.689
674.056
704.785
732.684
757.653
779.702
798.899
815.387
829.304
840.839
850.141
857.345
862.529
865.768
867.036
866.407
863.753
860.987
859.071
857.936
857.274
856.957
856.876
856.985
857.194
857.486
857.801
858.118
858.422
858.709
859.011
859.334
859.727
860.168
860.784
861.405
862.142
863.116
865.554
875.641
341.801
368.036
405.658
444.575
484.085
523.544
562.308
599.766
635.38
668.711
699.431
727.34
752.333
774.417
793.653
810.182
824.139
835.707
845.034
852.249
857.422
860.618
861.807
861.035
858.179
855.216
853.152
851.906
851.163
850.784
850.655
850.719
850.883
851.124
851.387
851.654
851.912
852.163
852.44
852.745
853.133
853.579
854.242
854.889
855.702
856.704
859.032
869.411
338.313
363.914
401.226
439.873
479.15
518.415
557.025
594.367
629.9
663.182
693.879
721.786
746.795
768.905
788.177
804.746
818.745
830.353
839.716
846.956
852.136
855.313
856.441
855.555
852.52
849.385
847.191
845.849
845.036
844.603
844.432
844.452
844.572
844.762
844.971
845.187
845.4
845.615
845.877
846.159
846.554
847.002
847.728
848.4
849.306
850.338
852.533
863.246
334.762
359.706
396.703
435.072
474.105
513.164
551.606
588.818
624.256
657.474
688.135
716.028
741.042
763.171
782.474
799.082
813.126
824.781
834.19
841.471
846.676
849.853
850.949
849.973
846.787
843.504
841.197
839.77
838.895
838.415
838.205
838.183
838.258
838.397
838.556
838.726
838.901
839.095
839.336
839.61
840.014
840.475
841.271
841.984
843.005
844.034
846.225
857.284
331.154
355.422
392.096
430.178
468.958
507.799
546.061
583.128
618.456
651.596
682.205
710.073
735.081
757.222
776.552
793.198
807.291
819
828.467
835.804
841.055
844.259
845.345
844.31
841.002
837.599
835.198
833.702
832.778
832.259
832.016
831.957
831.989
832.078
832.187
832.312
832.453
832.624
832.861
833.124
833.545
834.027
834.899
835.665
836.776
837.86
839.847
851.322
327.496
351.068
387.412
425.2
463.717
502.329
540.397
577.304
612.507
645.553
676.098
703.927
728.919
751.064
770.416
787.1
801.245
813.017
822.554
829.964
835.282
838.536
839.641
838.577
835.177
831.681
829.206
827.654
826.691
826.14
825.868
825.774
825.766
825.809
825.871
825.959
826.076
826.235
826.47
826.734
827.178
827.69
828.651
829.479
830.723
831.797
833.8
845.694
323.795
346.651
382.659
420.145
458.39
496.762
534.622
571.357
606.419
639.357
669.823
697.6
722.566
744.709
764.079
780.8
795.002
806.845
816.466
823.966
829.373
832.705
833.857
832.797
829.338
825.778
823.25
821.661
820.672
820.1
819.807
819.683
819.637
819.635
819.654
819.708
819.805
819.962
820.199
820.47
820.949
821.507
822.568
823.498
824.828
825.988
827.731
840.094
320.058
342.177
377.844
415.022
452.986
491.107
528.747
565.294
600.202
633.016
663.39
691.103
716.034
738.166
757.551
774.31
788.573
800.496
810.214
817.823
823.341
826.776
828.008
826.983
823.499
819.905
817.346
815.733
814.73
814.146
813.835
813.687
813.608
813.567
813.549
813.579
813.672
813.829
814.085
814.373
814.894
815.521
816.701
817.757
819.192
820.419
821.938
834.812
316.293
337.654
372.975
409.839
447.513
485.372
522.781
559.128
593.867
626.544
656.812
684.45
709.335
731.451
750.849
767.647
781.975
793.988
803.818
811.554
817.208
820.775
822.115
821.161
817.687
814.092
811.525
809.907
808.903
808.318
808.001
807.834
807.728
807.652
807.6
807.613
807.707
807.884
808.159
808.479
809.056
809.764
811.076
812.279
813.814
815.112
816.344
829.784
312.505
333.088
368.058
404.602
441.98
479.568
516.733
552.867
587.424
619.951
650.102
677.654
702.486
724.579
743.987
760.825
775.225
787.338
797.293
805.176
810.988
814.714
816.196
815.347
811.921
808.354
805.802
804.195
803.204
802.627
802.311
802.132
802.006
801.902
801.826
801.835
801.945
802.146
802.464
802.824
803.474
804.283
805.756
807.124
808.774
810.124
811.022
825.119
308.701
328.486
363.102
399.321
436.395
473.703
510.615
546.524
580.888
613.253
643.275
670.732
695.502
717.57
736.985
753.866
768.344
780.567
790.663
798.712
804.707
808.621
810.275
809.567
806.226
802.721
800.208
798.632
797.67
797.115
796.809
796.627
796.487
796.36
796.265
796.278
796.419
796.659
797.024
797.443
798.176
799.105
800.753
802.305
804.061
805.474
805.915
820.734
304.888
323.854
358.112
394.002
430.766
467.786
504.436
540.111
574.27
606.463
636.347
663.701
688.404
710.441
729.864
746.791
761.353
773.696
783.948
792.181
798.381
802.511
804.371
803.84
800.622
797.211
794.762
793.234
792.313
791.79
791.505
791.33
791.184
791.045
790.94
790.976
791.156
791.452
791.882
792.366
793.206
794.259
796.125
797.848
799.835
801.127
801.467
816.987
301.072
319.198
353.095
388.652
425.102
461.829
498.208
533.64
567.585
599.598
629.335
656.579
681.21
703.215
722.647
739.623
754.277
766.752
777.174
785.611
792.04
796.414
798.51
798.192
795.137
791.853
789.493
788.033
787.172
786.695
786.442
786.284
786.141
785.996
785.889
785.956
786.198
786.556
787.068
787.628
788.592
789.788
791.909
793.848
796.026
797.334
797.077
813.328
297.259
314.523
348.058
383.28
419.411
455.838
491.941
527.123
560.848
592.672
622.257
649.387
673.944
695.915
715.358
732.387
747.14
759.758
770.364
779.023
785.704
790.347
792.712
792.642
789.79
786.665
784.418
783.045
782.258
781.839
781.632
781.501
781.373
781.232
781.135
781.248
781.556
782.002
782.603
783.256
784.354
785.711
788.118
790.278
792.742
793.902
793.412
810.404
293.455
309.837
343.007
377.892
413.701
449.825
485.647
520.573
554.072
585.705
615.133
642.146
666.627
688.567
708.023
725.111
739.971
752.743
763.548
772.446
779.401
784.339
787.004
787.218
784.608
781.676
779.568
778.302
777.606
777.261
777.112
777.021
776.917
776.789
776.707
776.875
777.267
777.798
778.512
779.246
780.518
782.036
784.802
787.201
789.952
791.009
789.8
807.601
289.666
305.143
337.947
372.494
407.98
443.798
479.336
514.003
547.274
578.711
607.982
634.877
659.284
681.194
700.668
717.822
732.798
745.734
756.751
765.905
773.153
778.411
781.407
781.937
779.609
776.902
774.957
773.817
773.229
772.971
772.894
772.855
772.79
772.686
772.632
772.856
773.341
773.971
774.792
775.639
777.077
778.817
781.947
784.658
787.672
788.655
786.701
805.386
285.898
300.447
332.885
367.094
402.255
437.766
473.018
507.427
540.468
571.711
600.825
627.604
651.939
673.824
693.321
710.549
725.649
738.761
750.003
759.43
766.99
772.592
775.945
776.826
774.819
772.369
770.613
769.62
769.157
769.002
769.012
769.04
769.024
768.955
768.929
769.22
769.799
770.535
771.467
772.446
774.062
776.059
779.564
782.666
785.899
786.89
784.03
803.597
282.155
295.754
327.825
361.696
396.534
431.738
466.706
500.855
533.67
564.72
593.681
620.349
644.617
666.483
686.011
703.32
718.554
731.851
743.331
753.044
760.934
766.901
770.639
771.903
770.254
768.092
766.551
765.723
765.401
765.366
765.476
765.585
765.633
765.611
765.626
765.974
766.658
767.5
768.561
769.687
771.49
773.794
777.71
781.269
784.715
785.727
781.822
802.381
278.444
291.068
322.773
356.308
390.823
425.722
460.408
494.302
526.893
557.756
586.57
613.134
637.344
659.199
678.766
696.165
711.542
725.037
736.766
746.778
755.015
761.365
765.513
767.191
765.938
764.096
762.793
762.15
761.987
762.087
762.313
762.518
762.644
762.68
762.737
763.149
763.919
764.9
766.07
767.387
769.37
772.046
776.37
780.502
784.099
785.278
780.075
801.526
274.768
286.394
317.732
350.933
385.128
419.726
454.133
487.779
520.153
550.837
579.512
605.981
630.142
651.997
671.613
689.112
704.643
718.344
730.332
740.657
749.254
756.005
760.587
762.706
761.886
760.392
759.35
758.911
758.923
759.175
759.532
759.85
760.069
760.179
760.282
760.755
761.616
762.727
764.035
765.544
767.746
770.816
775.618
780.354
784.271
785.348
779.488
801.885
271.134
281.736
312.708
345.578
379.456
413.757
447.893
481.296
513.464
543.978
572.526
598.912
623.036
644.903
664.579
682.19
697.885
711.803
724.061
734.707
743.677
750.846
755.88
758.47
758.116
756.999
756.243
756.027
756.232
756.651
757.155
757.6
757.928
758.123
758.287
758.811
759.759
761.01
762.459
764.184
766.619
770.15
775.46
780.923
785.005
786.274
778.963
802.388
267.545
277.098
307.704
340.245
373.811
407.822
441.693
474.865
506.836
537.195
565.63
591.947
616.049
637.94
657.691
675.425
691.294
705.438
717.975
728.952
738.306
745.905
751.412
754.495
754.641
753.928
753.479
753.504
753.916
754.519
755.185
755.775
756.228
756.527
756.757
757.336
758.365
759.763
761.361
763.334
766.004
770.057
775.878
782.168
786.53
787.795
779.813
804.428
264.006
272.482
302.724
334.94
368.199
401.926
435.543
468.494
500.284
530.502
558.84
585.105
609.202
631.134
650.973
668.844
684.898
699.278
712.101
723.418
733.164
741.204
747.199
750.799
751.475
751.193
751.073
751.356
751.992
752.793
753.637
754.387
754.982
755.397
755.713
756.343
757.448
759.005
760.762
763.003
765.932
770.564
776.952
784.171
788.729
790.219
780.568
806.29
260.522
267.893
297.77
329.665
362.623
396.075
429.448
462.192
493.816
523.911
552.171
578.403
602.513
624.504
644.447
662.468
678.719
693.343
706.461
718.123
728.268
736.759
743.256
747.393
748.628
748.801
749.03
749.588
750.46
751.476
752.511
753.438
754.19
754.741
755.154
755.842
757.022
758.745
760.676
763.206
766.404
771.633
778.62
786.767
791.758
793.194
782.721
809.697
257.096
263.332
292.846
324.424
357.088
390.273
423.415
455.967
487.442
517.434
545.636
571.858
596.001
618.07
638.134
656.32
672.779
687.658
701.078
713.091
723.64
732.588
739.598
744.29
746.11
746.761
747.357
748.207
749.331
750.573
751.815
752.933
753.857
754.557
755.094
755.836
757.098
758.988
761.126
763.935
767.493
773.311
781.111
790.13
795.609
796.892
784.413
812.939
253.733
258.804
287.954
319.219
351.595
384.524
417.447
449.824
481.169
511.079
539.247
565.48
589.68
611.848
632.051
650.417
667.098
682.241
695.967
708.336
719.292
728.704
736.236
741.497
743.927
745.076
746.057
747.214
748.602
750.083
751.546
752.868
753.978
754.85
755.513
756.34
757.675
759.736
762.103
765.196
769.162
775.549
784.248
794.066
800.219
801.205
787.431
817.588
250.436
254.31
283.095
314.053
346.148
378.831
411.549
443.768
475.004
504.855
533.013
559.283
583.562
605.851
626.215
644.778
661.692
677.108
691.148
703.876
715.243
725.121
733.179
739.023
742.084
743.749
745.133
746.61
748.275
750.006
751.701
753.242
754.554
755.606
756.433
757.327
758.782
760.959
763.642
766.964
771.495
778.391
788.257
798.704
805.811
806.226
790.695
822.507
247.208
249.852
278.273
308.926
340.747
373.195
405.723
437.801
468.95
498.766
526.94
553.272
577.658
600.092
620.636
639.413
656.576
672.274
686.633
699.723
711.501
721.846
730.437
736.873
740.583
742.781
744.581
746.393
748.344
750.336
752.274
754.045
755.574
756.825
757.825
758.826
760.378
762.705
765.658
769.314
774.339
781.921
792.788
804.14
811.873
812.123
794.768
827.963
244.054
245.433
273.487
303.841
335.395
367.618
399.97
431.927
463.01
492.817
521.033
547.455
571.973
594.577
615.324
634.335
651.759
667.749
682.435
695.888
708.079
718.89
728.015
735.051
739.424
742.171
744.4
746.558
748.805
751.066
753.257
755.271
757.028
758.494
759.686
760.821
762.471
764.948
768.184
772.21
777.77
786.091
797.995
810.307
818.699
818.852
799.232
833.758
240.977
241.054
268.74
298.797
330.092
362.099
394.291
426.144
457.185
487.007
515.293
541.834
566.512
589.312
610.284
629.548
647.249
663.542
678.559
692.379
704.98
716.258
725.916
733.556
738.606
741.913
744.583
747.097
749.648
752.187
754.639
756.904
758.904
760.599
762.003
763.301
765.055
767.685
771.22
775.653
781.798
790.915
803.907
817.242
826.323
826.482
804.265
839.839
237.979
236.717
264.033
293.796
324.837
356.64
388.684
420.453
451.473
481.337
509.721
536.408
561.276
584.298
605.52
625.057
643.051
659.658
675.013
689.201
702.213
713.953
724.143
732.389
738.125
742.001
745.122
748.001
750.864
753.685
756.406
758.932
761.185
763.124
764.76
766.249
768.117
770.905
774.749
779.629
786.399
796.38
810.47
824.925
834.653
834.872
809.932
846.037
235.064
232.424
259.366
288.838
319.631
351.238
383.148
414.851
445.872
475.802
504.312
531.176
556.261
579.534
601.031
620.861
639.165
656.098
671.797
686.356
699.776
711.976
722.694
731.547
737.974
742.428
746.007
749.26
752.439
755.548
758.542
761.337
763.853
766.049
767.934
769.64
771.642
774.589
778.745
784.103
791.534
802.433
817.609
833.245
843.552
843.666
816.313
852.286
232.234
228.176
254.739
283.923
314.473
345.893
377.682
409.334
440.378
470.399
499.062
526.131
551.463
575.015
596.812
616.958
635.589
652.86
668.911
683.843
697.67
710.325
721.566
731.023
738.145
743.182
747.225
750.856
754.357
757.757
761.029
764.099
766.888
769.354
771.503
773.45
775.617
778.726
783.192
789.054
797.183
809.037
825.313
842.166
853.061
853.017
823.089
858.632
229.493
223.974
250.154
279.051
309.361
340.601
372.28
403.898
434.984
465.12
493.963
521.266
546.874
570.732
592.855
613.34
632.316
649.939
666.35
681.658
695.891
708.997
720.755
730.811
738.628
744.251
748.764
752.778
756.603
760.295
763.848
767.196
770.268
773.015
775.445
777.657
780.028
783.309
788.08
794.472
803.347
816.196
833.606
851.671
863.153
862.937
830.338
865.383
226.844
219.82
245.611
274.22
304.294
335.361
366.939
398.538
429.684
459.958
489.005
516.57
542.483
566.675
589.151
609.998
629.338
647.326
664.107
679.796
694.432
707.984
720.252
730.901
739.41
745.618
750.603
755.003
759.154
763.139
766.974
770.606
773.966
777.007
779.734
782.234
784.855
788.327
793.392
800.322
809.985
823.833
842.362
861.53
873.52
873.09
838.087
871.558
224.287
215.715
241.109
269.432
299.271
330.168
361.655
393.246
424.469
454.9
484.177
512.03
538.275
562.83
585.685
606.917
626.641
645.011
662.17
678.243
693.284
707.278
720.048
731.281
740.478
747.27
752.727
757.516
761.993
766.27
770.386
774.303
777.957
781.302
784.342
787.154
790.072
793.758
799.12
806.58
817.092
831.927
851.674
871.831
884.558
884.03
845.915
878.128
221.827
211.66
236.65
264.684
294.29
325.021
356.423
388.015
419.331
449.938
479.466
507.632
534.237
559.181
582.44
604.082
624.211
642.977
660.526
676.99
692.435
706.865
720.128
731.937
741.812
749.184
755.113
760.289
765.093
769.661
774.056
778.259
782.212
785.871
789.238
792.384
795.633
799.572
805.249
813.247
824.651
840.524
861.475
882.555
895.818
895.512
854.519
884.191
219.465
207.657
232.233
259.977
289.348
319.916
351.236
382.838
414.257
445.057
474.856
503.358
530.347
555.707
579.398
601.472
622.027
641.207
659.157
676.018
691.868
706.731
720.48
732.853
743.396
751.343
757.743
763.306
768.434
773.289
777.96
782.447
786.702
790.681
794.391
797.889
801.497
805.741
811.763
820.277
832.609
849.511
871.736
893.646
907.675
907.935
863.066
890.284
217.204
203.705
227.858
255.309
284.445
314.848
346.089
377.708
409.239
440.244
470.333
499.191
526.589
552.389
576.536
599.067
620.069
639.679
658.044
675.309
691.565
706.857
721.083
734.009
745.208
753.722
760.587
766.535
771.984
777.122
782.067
786.835
791.393
795.7
799.764
803.632
807.622
812.241
818.645
827.687
840.968
859.009
882.475
905.247
919.661
920.797
872.541
896.236
215.046
199.807
223.526
250.68
279.577
309.814
340.977
372.614
404.265
435.486
465.877
495.111
522.938
549.202
573.829
596.841
618.311
638.369
657.162
674.84
691.507
707.225
721.919
735.386
747.226
756.299
763.626
769.956
775.723
781.139
786.35
791.396
796.255
800.895
805.322
809.575
813.966
819.001
825.827
835.407
849.632
868.817
893.547
917.157
932.082
934.576
882.035
902.388
212.992
195.964
219.237
246.089
274.744
304.812
335.894
367.55
399.323
430.767
461.474
491.098
519.373
546.123
571.253
594.767
616.726
637.251
656.487
674.587
691.667
707.81
722.964
736.959
749.424
759.045
766.828
773.535
779.614
785.304
790.776
796.093
801.253
806.227
811.027
815.679
820.487
825.965
833.255
843.443
858.595
879.064
904.989
929.497
944.3
947.531
892.609
909.757
211.045
192.177
214.99
241.536
269.944
299.837
330.835
362.507
394.403
426.074
457.103
487.13
515.87
543.124
568.778
592.817
615.286
636.297
655.99
674.522
692.022
708.588
724.196
738.705
751.78
761.937
770.17
777.25
783.638
789.594
795.319
800.9
806.354
811.669
816.835
821.907
827.143
833.076
840.866
851.678
867.706
889.425
916.52
941.899
956.655
960.475
903.346
917.842
209.206
188.446
210.787
237.021
265.175
294.887
325.793
357.477
389.493
421.392
452.748
483.187
512.405
540.18
566.377
590.96
613.959
635.474
655.64
674.617
692.541
709.53
725.585
740.596
754.262
764.944
773.618
781.065
787.755
793.972
799.942
805.78
811.527
817.162
822.725
828.2
833.897
840.28
848.567
860.057
876.925
899.992
928.173
954.556
968.837
972.53
914.88
925.777
207.477
184.774
206.626
232.542
260.436
289.959
320.766
352.453
384.583
416.707
448.391
479.248
508.952
537.263
564.019
589.166
612.715
634.752
655.407
674.84
693.196
710.61
727.106
742.607
756.846
768.04
777.149
784.959
791.947
798.417
804.623
810.707
816.729
822.705
828.619
834.554
840.665
847.561
856.252
868.442
885.922
910.287
939.28
966.902
980.597
984.11
926.744
932.589
205.859
181.161
202.51
228.1
255.726
285.051
315.748
347.428
379.664
412.007
444.016
475.291
505.49
534.346
561.677
587.404
611.52
634.097
655.256
675.158
693.954
711.794
728.727
744.707
759.5
771.194
780.728
788.892
796.172
802.89
809.324
815.643
821.939
828.224
834.524
840.888
847.475
854.836
864
876.755
894.955
920.362
950.601
979.345
993.106
997.152
939.223
939.589
204.354
177.609
198.437
223.695
251.044
280.16
310.735
342.397
374.726
407.278
439.607
471.299
501.994
531.403
559.32
585.642
610.343
633.476
655.156
675.539
694.784
713.055
730.422
746.868
762.199
774.38
784.333
792.848
800.415
807.373
814.026
820.57
827.119
833.724
840.387
847.191
854.266
862.121
871.747
885.024
903.865
930.158
961.656
991.535
1005.7
1010.67
952.677
946.778
202.963
174.119
194.409
219.326
246.39
275.286
305.726
337.354
369.763
402.511
435.149
467.252
498.443
528.409
556.921
583.851
609.15
632.856
655.071
675.95
695.653
714.358
732.155
749.059
764.909
777.564
787.928
796.785
804.633
811.827
818.692
825.449
832.249
839.145
846.189
853.429
861.003
869.371
879.465
893.166
912.573
939.611
972.27
1003.45
1018.1
1024.33
966.383
954.57
201.686
170.692
190.426
214.995
241.763
270.427
300.717
332.296
364.767
397.695
430.63
463.134
494.815
525.339
554.451
581.998
607.91
632.203
654.969
676.357
696.528
715.673
733.901
751.253
767.606
780.725
791.49
800.688
808.813
816.238
823.306
830.266
837.296
844.492
851.887
859.569
867.645
876.54
887.118
901.146
920.974
948.558
982.215
1014.59
1030.11
1037.83
980.978
962.478
200.525
167.332
186.489
210.703
237.168
265.587
295.713
327.225
359.742
392.834
426.05
458.946
491.112
522.193
551.91
580.084
606.62
631.516
654.849
676.759
697.411
717.002
735.66
753.455
770.295
783.865
795.026
804.555
812.952
820.603
827.868
835.021
842.276
849.738
857.502
865.604
874.187
883.615
894.697
909.033
929.021
956.951
991.375
1024.87
1041.38
1050.83
995.687
971.449
199.481
164.038
182.599
206.45
232.602
260.765
290.711
322.14
354.683
387.92
421.401
454.674
487.316
518.95
549.275
578.082
605.254
630.767
654.682
677.13
698.274
718.321
737.412
755.642
772.956
786.968
798.518
808.378
817.046
824.918
832.371
839.706
847.161
854.898
862.974
871.516
880.582
890.563
902.156
916.836
936.861
964.669
999.513
1033.95
1051.85
1063.49
1010.81
980.193
198.554
160.813
178.757
202.238
228.068
255.962
285.712
317.038
349.587
382.948
416.674
450.308
483.414
515.594
546.524
575.968
603.785
629.927
654.437
677.438
699.088
719.597
739.123
757.786
775.56
790.005
801.937
812.121
821.054
829.143
836.781
844.286
851.937
859.901
868.322
877.244
886.826
897.33
909.491
924.533
944.682
972.05
1007.06
1042.23
1061.81
1076.83
1026.24
988.243
197.743
157.658
174.964
198.066
223.565
251.177
280.716
311.919
344.451
377.913
411.862
445.837
479.39
512.106
543.637
573.72
602.189
628.97
654.09
677.657
699.824
720.808
740.775
759.866
778.089
792.959
805.269
815.777
824.975
833.28
841.094
848.76
856.58
864.781
873.474
882.804
892.869
903.926
916.634
932.123
952.403
979.419
1013.89
1049.58
1070.87
1088.99
1041.3
997.611
197.05
154.575
171.219
193.935
219.094
246.413
275.722
306.782
339.275
372.813
406.96
441.254
475.236
508.474
540.598
571.318
600.441
627.87
653.611
677.757
700.455
721.922
742.333
761.853
780.514
795.801
808.485
819.31
828.77
837.288
845.275
853.092
861.077
869.466
878.461
888.148
898.692
910.304
923.567
939.543
959.998
986.803
1020.48
1055.89
1078.12
1099.25
1056.21
1008.91
196.473
151.566
167.524
189.846
214.657
241.668
270.732
301.628
334.056
367.645
401.964
436.551
470.94
504.684
537.389
568.741
598.521
626.604
652.976
677.714
700.956
722.917
743.781
763.728
782.82
798.519
811.573
822.72
832.443
841.173
849.329
857.288
865.414
873.998
883.217
893.275
904.261
916.423
930.247
946.705
967.386
994.02
1026.99
1061.53
1084.11
1106.11
1069.99
1021.78
196.013
148.633
163.879
185.8
210.254
236.946
265.747
296.458
328.797
362.408
396.871
431.724
466.496
500.724
533.998
565.974
596.409
625.15
652.161
677.502
701.299
723.764
745.086
765.463
784.978
801.085
814.507
825.969
835.953
844.895
853.217
861.313
869.574
878.305
887.78
898.129
909.563
922.236
936.635
953.582
974.529
1001.09
1033.54
1067.4
1090.08
1112.56
1082.72
1035.08
195.668
145.777
160.286
181.797
205.886
232.247
260.769
291.273
323.498
357.102
391.679
426.768
461.896
496.587
530.411
563.002
594.087
623.488
651.145
677.099
701.462
724.443
746.234
767.041
786.976
803.487
817.276
829.06
839.308
848.463
856.951
865.177
873.553
882.438
892.076
902.742
914.546
927.737
942.672
960.141
981.359
1007.87
1039.76
1072.93
1095.72
1118.17
1094.56
1049.11
195.438
143
156.744
177.837
201.554
227.572
255.798
286.074
318.159
351.729
386.388
421.683
457.138
492.266
526.62
559.81
591.538
621.598
649.906
676.481
701.422
724.928
747.193
768.436
788.787
805.701
819.857
831.957
842.47
851.84
860.492
868.844
877.334
886.326
896.164
907.047
919.228
932.881
948.348
966.31
987.84
1014.31
1045.68
1077.96
1100.61
1122.94
1104.78
1062.93
195.321
140.304
153.254
173.922
197.259
222.924
250.838
280.865
312.784
346.29
380.999
416.467
452.217
487.754
522.615
556.389
588.75
619.466
648.427
675.63
701.158
725.202
747.952
769.635
790.4
807.718
822.241
834.667
845.45
855.037
863.857
872.334
880.919
890.025
899.968
911.097
923.577
937.654
953.628
972.074
993.936
1020.41
1051.25
1082.45
1104.54
1126.08
1113.31
1076.47
195.315
137.691
149.818
170.052
193.003
218.302
245.889
275.647
307.375
340.786
375.513
411.121
447.133
483.049
518.392
552.729
585.71
617.076
646.69
674.527
700.65
725.24
748.483
770.612
791.792
809.513
824.407
837.154
848.21
858.019
867.007
875.607
884.289
893.468
903.557
914.831
927.591
942.058
958.478
977.411
999.604
1026.09
1056.36
1086.2
1107.24
1127.48
1119.56
1088.55
195.419
135.163
146.435
166.228
188.785
213.71
240.955
270.423
301.934
335.221
369.934
405.646
441.885
478.148
513.945
548.823
582.41
614.417
644.683
673.156
699.883
725.03
748.776
771.357
792.954
811.082
826.349
839.43
850.765
860.801
869.966
878.691
887.456
896.718
906.859
918.299
931.277
946.051