/*--------------------------------*- C++ -*----------------------------------*\
| =========                 |                                                 |
| \\      /  F ield         | OpenFOAM: The Open Source CFD Toolbox           |
|  \\    /   O peration     | Version:  2406                                  |
|   \\  /    A nd           | Website:  www.openfoam.com                      |
|    \\/     M anipulation  |                                                 |
\*---------------------------------------------------------------------------*/
FoamFile
{
    version     2.0;
    format      ascii;
    arch        "LSB;label=32;scalar=64";
    class       volScalarField;
    location    "5";
    object      p;
}
// * * * * * * * * * * * * * * * * * * * * * * * * * * * * * * * * * * * * * //

dimensions      [0 2 -2 0 0 0 0];

internalField   nonuniform List<scalar> 
38016
(
3.40234
1.64563
1.60202
1.43813
1.34459
1.21715
1.11547
0.789578
0.208169
-0.963979
-2.25455
-2.49784
-2.27548
-0.116656
2.3061
8.34031
13.1743
22.9269
31.88
36.8285
36.3612
30.0749
-48.011
-85.0123
-242.848
-367.682
-552.278
-679.367
-786.717
-865.927
-917.17
-944.14
-950.192
-939.893
-917.375
-885.271
-845.217
-799.414
-749.206
-696.168
-641.122
-585.048
-528.277
-470.879
-412.147
-351.292
-274.773
-197.682
3.43507
1.65568
1.60631
1.43819
1.33233
1.19891
1.08203
0.747497
0.143788
-1.04822
-2.34733
-2.60422
-2.37638
-0.168408
2.34578
8.51563
13.6175
23.6254
32.9027
38.1451
37.9379
30.9433
-45.6976
-85.3753
-242.196
-371.97
-558.071
-689.397
-799.551
-881.27
-934.604
-963.216
-970.76
-961.637
-940.225
-909.113
-870.069
-825.315
-776.08
-724.038
-670.076
-615.048
-559.375
-503.001
-445.161
-384.748
-309.034
-234.095
3.46736
1.66514
1.60984
1.43723
1.31891
1.17924
1.0468
0.70297
0.0763291
-1.13631
-2.44512
-2.71803
-2.48696
-0.235441
2.36597
8.66004
14.0212
24.2631
33.8351
39.3305
39.3185
31.4915
-43.7547
-86.4074
-242.52
-377.469
-565.12
-700.797
-813.832
-898.103
-953.546
-983.829
-992.879
-984.982
-964.718
-934.649
-896.671
-853.001
-804.838
-753.878
-701.049
-647.136
-592.572
-537.229
-480.318
-420.493
-347.513
-276.925
3.4994
1.67443
1.61335
1.43622
1.30558
1.15956
1.01156
0.658293
0.00897925
-1.22375
-2.54134
-2.82989
-2.59279
-0.296939
2.39929
8.82181
14.4561
24.9428
34.8241
40.5938
40.8049
32.1386
-41.5361
-87.147
-242.246
-382.397
-571.514
-711.572
-827.525
-914.376
-971.954
-1003.95
-1014.54
-1007.94
-988.88
-959.917
-923.064
-880.528
-833.525
-783.74
-732.131
-679.446
-626.118
-572.012
-516.407
-458.096
-389.602
-324.931
3.53165
1.68403
1.61711
1.43539
1.29251
1.14012
0.976518
0.613561
-0.0582807
-1.31079
-2.63661
-2.94098
-2.69623
-0.356512
2.43948
8.99088
14.9082
25.6427
35.8393
41.8925
42.336
32.8171
-39.1643
-87.7338
-241.711
-387.051
-577.536
-721.961
-840.846
-930.289
-990.023
-1023.78
-1035.94
-1030.71
-1012.9
-985.095
-949.423
-908.064
-862.302
-813.781
-763.493
-712.193
-660.325
-607.829
-554.187
-498.649
-435.731
-377.82
3.56359
1.69334
1.62072
1.43433
1.27933
1.12041
0.941197
0.568277
-0.125911
-1.39789
-2.73147
-3.05175
-2.79763
-0.414642
2.48592
9.16721
15.3749
26.3604
36.8762
43.2192
43.9011
33.5306
-36.7
-88.2094
-241.038
-391.511
-583.338
-732.08
-853.902
-945.93
-1007.81
-1043.33
-1057.06
-1053.2
-1036.65
-1010
-975.518
-935.344
-890.864
-843.678
-794.825
-745.106
-695.016
-644.633
-593.769
-542.08
-485.36
-434.581
3.59576
1.70296
1.62458
1.43346
1.26644
1.10095
0.906089
0.522945
-0.193454
-1.48466
-2.82553
-3.16202
-2.89719
-0.471655
2.53774
9.34892
15.8553
27.0941
37.9335
44.5735
45.499
34.2822
-34.1335
-88.5541
-240.181
-395.723
-588.846
-741.854
-866.615
-961.219
-1025.23
-1062.52
-1077.82
-1075.36
-1060.06
-1034.58
-1001.29
-962.324
-919.178
-873.427
-826.178
-778.308
-730.389
-682.723
-635.387
-588.326
-538.115
-494.477
3.62763
1.71228
1.62829
1.43236
1.25343
1.08119
0.870709
0.477046
-0.261371
-1.57154
-2.91933
-3.27216
-2.99522
-0.527717
2.59456
9.5367
16.3478
27.843
39.0101
45.954
47.1296
35.0923
-31.4892
-88.7432
-239.172
-399.66
-594.083
-751.272
-878.971
-976.141
-1042.29
-1081.34
-1098.2
-1097.15
-1083.09
-1058.78
-1026.69
-988.978
-947.238
-903.052
-857.624
-811.915
-766.612
-722.238
-679.007
-637.016
-593.294
-556.474
3.65973
1.7219
1.63225
1.43144
1.2407
1.06168
0.835541
0.431078
-0.329228
-1.65815
-3.01251
-3.38206
-3.09193
-0.58348
2.65533
9.72801
16.851
28.6037
40.1017
47.3555
48.7843
35.9483
-28.7719
-88.7937
-238.006
-403.329
-599.037
-760.327
-890.963
-990.685
-1058.95
-1099.78
-1118.18
-1118.54
-1105.71
-1082.59
-1051.72
-1015.31
-975.064
-932.613
-889.26
-846.048
-803.814
-763.16
-724.413
-687.556
-650.036
-619.397
3.69152
1.73123
1.63605
1.43029
1.22786
1.04188
0.800101
0.384519
-0.397493
-1.74498
-3.10566
-3.49216
-3.18783
-0.63925
2.7192
9.92299
17.3619
29.3743
41.2058
48.775
50.4611
36.8666
-26.0063
-88.6839
-236.712
-406.701
-603.727
-769.006
-902.575
-1004.83
-1075.21
-1117.8
-1137.74
-1139.51
-1127.9
-1105.97
-1076.35
-1041.32
-1002.69
-962.178
-921.171
-880.795
-841.985
-805.342
-771.129
-739.233
-707.34
-682.032
3.72355
1.74086
1.6401
1.42933
1.21531
1.02232
0.764869
0.337877
-0.46574
-1.83165
-3.19843
-3.60245
-3.28324
-0.695963
2.78477
10.1184
17.8785
30.1501
42.3164
50.2045
52.148
37.8268
-23.198
-88.4387
-235.286
-409.793
-608.137
-777.304
-913.798
-1018.57
-1091.04
-1135.4
-1156.86
-1160.02
-1149.63
-1128.91
-1100.59
-1067.02
-1030.17
-991.812
-953.413
-916.173
-881.002
-848.456
-818.593
-791.264
-764.249
-743.428
3.75526
1.75019
1.64399
1.42812
1.20264
1.00245
0.729366
0.290629
-0.534447
-1.91866
-3.2915
-3.71341
-3.37887
-0.754146
2.85061
10.3138
18.3967
30.9277
43.4289
51.6386
53.84
38.8398
-20.3747
-88.0434
-233.762
-412.584
-612.29
-785.214
-924.621
-1031.89
-1106.44
-1152.56
-1175.51
-1180.07
-1170.89
-1151.41
-1124.45
-1092.47
-1057.55
-1021.57
-986.015
-952.107
-920.661
-892.076
-866.268
-842.968
-820.149
-803.041
3.7872
1.75983
1.64813
1.42711
1.19026
0.982814
0.694056
0.243253
-0.603217
-2.00569
-3.38455
-3.82518
-3.47517
-0.815107
2.91497
10.5051
18.9132
31.7007
44.5349
53.0663
55.5208
39.8791
-17.5465
-87.5304
-232.141
-415.096
-616.173
-792.734
-935.039
-1044.78
-1121.4
-1169.25
-1193.7
-1199.62
-1191.68
-1173.48
-1147.96
-1117.69
-1084.9
-1051.48
-1018.95
-988.446
-960.663
-935.768
-913.616
-893.808
-874.54
-860.455
3.81883
1.76918
1.6521
1.42585
1.17775
0.962863
0.658461
0.195232
-0.672542
-2.09326
-3.47834
-3.93835
-3.57308
-0.879666
2.97578
10.6908
19.4228
32.4641
45.6276
54.4788
57.1816
40.9493
-14.7455
-86.8936
-230.461
-417.319
-619.812
-799.863
-945.045
-1057.24
-1135.9
-1185.48
-1211.4
-1218.69
-1212.01
-1195.14
-1171.15
-1142.75
-1112.25
-1081.55
-1052.13
-1025
-1000.65
-979.113
-960.127
-943.282
-926.937
-915.221
3.8507
1.77883
1.65631
1.42479
1.16554
0.943137
0.623043
0.147036
-0.742038
-2.18107
-3.5726
-4.05316
-3.67325
-0.94954
3.03068
10.8661
19.9207
33.2093
46.6953
55.8613
58.8007
42.0174
-11.9887
-86.1725
-228.73
-419.28
-623.201
-806.608
-954.642
-1069.25
-1149.95
-1201.24
-1228.62
-1237.27
-1231.88
-1216.42
-1194.09
-1167.7
-1139.63
-1111.75
-1085.43
-1061.52
-1040.3
-1021.7
-1005.38
-990.943
-976.888
-967
3.88224
1.78818
1.66037
1.42348
1.15319
0.923077
0.587321
0.0981538
-0.81221
-2.26967
-3.66816
-4.17032
-3.7769
-1.02592
3.07679
11.0284
20.3998
33.9288
47.7284
57.2011
60.364
43.0806
-9.3142
-85.3717
-226.995
-420.982
-626.369
-812.977
-963.831
-1080.82
-1163.53
-1216.52
-1245.35
-1255.37
-1251.34
-1237.37
-1216.81
-1192.58
-1167.05
-1142.01
-1118.69
-1097.74
-1079.3
-1063.21
-1049.11
-1036.64
-1024.44
-1015.98
3.91401
1.79785
1.66465
1.42236
1.14114
0.903229
0.551745
0.0490197
-0.88271
-2.35882
-3.76485
-4.29026
-3.8849
-1.11103
3.11117
11.1716
20.8539
34.6119
48.7117
58.4786
61.8441
44.0987
-6.74693
-84.5404
-225.274
-422.462
-629.319
-818.983
-972.621
-1091.96
-1176.66
-1231.35
-1261.63
-1273.04
-1270.42
-1258.04
-1239.38
-1217.43
-1194.48
-1172.23
-1151.73
-1133.46
-1117.43
-1103.46
-1091.2
-1080.32
-1069.62
-1062.28
3.94545
1.80722
1.66877
1.421
1.12895
0.883031
0.515836
-0.000871342
-0.954057
-2.44911
-3.86357
-4.41382
-3.9988
-1.20651
3.13
11.2917
21.2737
35.2482
49.6317
59.6765
63.2209
45.0599
-4.33208
-83.6956
-223.621
-423.736
-632.087
-824.644
-981.02
-1102.68
-1189.35
-1245.71
-1277.47
-1290.29
-1289.17
-1278.48
-1261.85
-1242.24
-1221.88
-1202.31
-1184.4
-1168.49
-1154.55
-1142.34
-1131.58
-1121.97
-1112.44
-1105.93
3.97712
1.81691
1.67312
1.41982
1.11704
0.863026
0.480037
-0.0510954
-1.02592
-2.54033
-3.96423
-4.5416
-4.11974
-1.31513
3.12948
11.3814
21.6512
35.8239
50.4694
60.7698
64.4601
45.9168
-2.10479
-82.8954
-222.065
-424.848
-634.684
-829.983
-989.05
-1112.99
-1201.61
-1259.65
-1292.9
-1307.19
-1307.64
-1298.77
-1284.26
-1267.03
-1249.21
-1232.15
-1216.59
-1202.75
-1190.57
-1179.85
-1170.32
-1161.75
-1153.16
-1147.28
4.00846
1.8263
1.6773
1.41839
1.10498
0.842645
0.44387
-0.102154
-1.09884
-2.63311
-4.06784
-4.67461
-4.24964
-1.4391
3.10478
11.4352
21.9746
36.3256
51.207
61.7357
65.5351
46.6477
-0.117885
-82.1711
-220.669
-425.83
-637.155
-835.03
-996.729
-1122.91
-1213.46
-1273.19
-1307.97
-1323.79
-1325.91
-1318.95
-1306.63
-1291.8
-1276.41
-1261.68
-1248.22
-1236.18
-1225.5
-1216.02
-1207.51
-1199.78
-1192
-1186.66
4.04002
1.836
1.6817
1.41715
1.09321
0.822434
0.407762
-0.153662
-1.17253
-2.7273
-4.17441
-4.81365
-4.38996
-1.58179
3.05119
11.4443
22.2336
36.7361
51.8208
62.543
66.4042
47.1962
1.58343
-81.5926
-219.474
-426.74
-639.522
-839.818
-1004.09
-1132.47
-1224.95
-1286.38
-1322.73
-1340.15
-1344.04
-1339.08
-1328.99
-1316.51
-1303.43
-1290.85
-1279.25
-1268.78
-1259.38
-1250.93
-1243.27
-1236.24
-1229.11
-1224.22
4.07123
1.84541
1.68593
1.41565
1.08127
0.801821
0.371234
-0.206116
-1.24753
-2.8236
-4.28505
-4.95993
-4.54298
-1.74602
2.96274
11.4013
22.4141
37.0386
52.2886
63.1632
67.0337
47.5301
2.93826
-81.2059
-218.554
-427.623
-641.837
-844.388
-1011.16
-1141.71
-1236.11
-1299.27
-1337.25
-1356.35
-1362.09
-1359.2
-1351.35
-1341.14
-1330.25
-1319.62
-1309.68
-1300.59
-1292.31
-1284.77
-1277.85
-1271.45
-1264.92
-1260.44
4.10266
1.85512
1.69037
1.41433
1.06961
0.781347
0.334709
-0.259146
-1.32358
-2.92188
-4.39987
-5.11442
-4.71053
-1.93581
2.83366
11.296
22.5031
37.2124
52.5816
63.5584
67.3744
47.5848
3.8903
-81.0907
-217.96
-428.548
-644.136
-848.784
-1017.98
-1150.67
-1247
-1311.92
-1351.59
-1372.46
-1380.14
-1379.36
-1373.72
-1365.7
-1356.82
-1347.97
-1339.53
-1331.66
-1324.37
-1317.62
-1311.34
-1305.47
-1299.43
-1295.29
4.13374
1.86455
1.69463
1.41275
1.05777
0.760438
0.297706
-0.313244
-1.40126
-3.02288
-4.52007
-5.27854
-4.89527
-2.15465
2.65684
11.1191
22.4838
37.2368
52.6728
63.6939
67.3855
47.3172
4.3712
-81.3079
-217.774
-429.574
-646.478
-853.058
-1024.6
-1159.39
-1257.67
-1324.39
-1365.85
-1388.56
-1398.23
-1399.58
-1396.1
-1390.13
-1383.13
-1375.9
-1368.82
-1362.05
-1355.64
-1349.59
-1343.89
-1338.48
-1332.89
-1329.09
4.16503
1.87428
1.6991
1.41135
1.0462
0.739635
0.260633
-0.368077
-1.48033
-3.12657
-4.64587
-5.45347
-5.09938
-2.40717
2.42549
10.8586
22.3407
37.0876
52.5285
63.5255
67.0105
46.6543
4.31542
-81.9475
-218.06
-430.781
-648.91
-857.265
-1031.07
-1167.95
-1268.19
-1336.77
-1380.09
-1404.73
-1416.44
-1419.89
-1418.48
-1414.44
-1409.16
-1403.39
-1397.54
-1391.77
-1386.18
-1380.8
-1375.64
-1370.68
-1365.5
-1361.98
4.19595
1.88373
1.70337
1.40967
1.03443
0.718363
0.223011
-0.424131
-1.56138
-3.23369
-4.77858
-5.64079
-5.32589
-2.69751
2.13136
10.5036
22.0545
36.7404
52.1171
63.0127
66.2023
45.5431
3.64862
-83.0832
-218.905
-432.243
-651.501
-861.467
-1037.45
-1176.38
-1278.62
-1349.14
-1394.39
-1421.03
-1434.81
-1440.32
-1440.85
-1438.59
-1434.85
-1430.4
-1425.64
-1420.78
-1415.95
-1411.19
-1406.57
-1402.08
-1397.37
-1394.24
4.22707
1.89347
1.70785
1.40816
1.02291
0.697158
0.185244
-0.481084
-1.6442
-3.34426
-4.91848
-5.84188
-5.57731
-3.03093
1.76664
10.0405
21.6072
36.1678
51.4003
62.1056
64.8986
43.9046
2.29738
-84.8111
-220.381
-434.047
-654.307
-865.726
-1043.8
-1184.78
-1289.05
-1361.57
-1408.84
-1437.54
-1453.38
-1460.87
-1463.24
-1462.58
-1460.2
-1456.87
-1453.04
-1448.94
-1444.75
-1440.55
-1436.43
-1432.38
-1428.13
-1425.4
4.25782
1.90293
1.71213
1.40638
1.01118
0.675441
0.146853
-0.539413
-1.72936
-3.45907
-5.06696
-6.05847
-5.85699
-3.41216
1.32213
9.45662
20.9772
35.3421
50.3424
60.7592
63.0475
41.6782
0.184263
-87.2143
-222.578
-436.275
-657.403
-870.111
-1050.17
-1193.19
-1299.55
-1374.14
-1423.52
-1454.32
-1472.2
-1481.6
-1485.66
-1486.43
-1485.21
-1482.8
-1479.67
-1476.13
-1472.39
-1468.59
-1464.81
-1461.1
-1457.21
-1454.72
4.28875
1.91269
1.7166
1.40476
0.999683
0.653751
0.108229
-0.598831
-1.81671
-3.57816
-5.22439
-6.29206
-6.16768
-3.84687
0.789194
8.7372
20.1444
34.2332
48.902
58.9196
60.5829
38.7805
-2.76772
-90.3922
-225.572
-439.018
-660.852
-874.69
-1056.65
-1201.71
-1310.19
-1386.93
-1438.48
-1471.41
-1491.31
-1502.53
-1508.16
-1510.22
-1509.98
-1508.29
-1505.66
-1502.44
-1498.87
-1495.12
-1491.31
-1487.49
-1483.44
-1480.77
4.3193
1.92216
1.72085
1.40284
0.987951
0.631509
0.0688949
-0.659801
-1.90681
-3.70234
-5.39218
-6.54449
-6.51295
-4.34024
0.15787
7.86845
19.0856
32.8113
47.0405
56.5387
57.4505
35.1468
-6.63526
-94.4321
-229.454
-442.366
-664.732
-879.537
-1063.3
-1210.39
-1321.05
-1400.02
-1453.8
-1488.88
-1510.76
-1523.71
-1530.81
-1534.02
-1534.64
-1533.53
-1531.27
-1528.27
-1524.8
-1521.07
-1517.23
-1513.35
-1509.25
-1506.46
4.35001
1.93193
1.72529
1.40109
0.976437
0.60925
0.0292415
-0.722041
-1.9995
-3.83167
-5.57073
-6.81734
-6.89568
-4.89827
-0.580968
6.83457
17.7795
31.0444
44.7146
53.5609
53.584
30.6939
-11.4947
-99.43
-234.297
-446.409
-669.112
-884.722
-1070.19
-1219.31
-1332.2
-1413.47
-1469.53
-1506.77
-1530.58
-1545.21
-1553.67
-1557.94
-1559.32
-1558.73
-1556.78
-1553.91
-1550.46
-1546.65
-1542.66
-1538.56
-1534.22
-1531.15
4.38031
1.9414
1.7295
1.39903
0.964664
0.586394
-0.011203
-0.786
-2.09533
-3.96695
-5.76145
-7.11246
-7.31954
-5.52636
-1.43764
5.62124
16.2021
28.9018
41.8852
49.9382
48.9302
25.3582
-17.4168
-105.47
-240.186
-451.234
-674.069
-890.317
-1077.39
-1228.54
-1343.71
-1427.33
-1485.72
-1525.12
-1550.83
-1567.07
-1576.84
-1582.11
-1584.22
-1584.11
-1582.44
-1579.71
-1576.28
-1572.42
-1568.34
-1564.14
-1559.72
-1556.59
4.41077
1.95118
1.73388
1.39712
0.953094
0.563483
-0.0520571
-0.851412
-2.19417
-4.10823
-5.96474
-7.4314
-7.78734
-6.23039
-2.42136
4.21286
14.3321
26.3519
38.5093
45.6165
43.4264
19.0612
-24.4704
-112.639
-247.186
-456.925
-679.67
-896.39
-1084.96
-1238.14
-1355.63
-1441.67
-1502.41
-1543.96
-1571.53
-1589.33
-1600.39
-1606.65
-1609.49
-1609.88
-1608.53
-1605.97
-1602.62
-1598.79
-1594.71
-1590.47
-1586.03
-1582.83
4.44081
1.96067
1.73803
1.39491
0.94124
0.539938
-0.0937836
-0.918703
-2.29652
-4.25627
-6.18191
-7.77593
-8.30262
-7.01562
-3.54216
2.59542
12.1462
23.3652
34.5503
40.5517
37.0251
11.7464
-32.7141
-121.01
-255.369
-463.561
-685.988
-903.008
-1092.97
-1248.17
-1368.01
-1456.52
-1519.63
-1563.31
-1592.7
-1612.04
-1624.38
-1631.65
-1635.24
-1636.16
-1635.17
-1632.86
-1629.69
-1625.98
-1622.01
-1617.88
-1613.6
-1610.61
4.47097
1.97044
1.74232
1.39283
0.929574
0.5163
-0.135995
-0.987598
-2.40222
-4.41108
-6.41328
-8.14744
-8.86792
-7.8875
-4.80862
0.754356
9.62461
19.9126
29.9689
34.696
29.673
3.34797
-42.2031
-130.651
-264.785
-471.213
-693.081
-910.23
-1101.47
-1258.67
-1380.9
-1471.91
-1537.4
-1583.18
-1614.37
-1635.21
-1648.81
-1657.09
-1661.44
-1662.92
-1662.36
-1660.39
-1657.47
-1653.96
-1650.14
-1646.13
-1641.98
-1639.08
4.50068
1.97993
1.74638
1.39043
0.917601
0.491992
-0.179142
-1.05849
-2.51173
-4.57335
-6.66004
-8.54746
-9.48636
-8.85073
-6.22967
-1.32284
6.74687
15.9683
24.7344
28.0138
21.3337
-6.17638
-52.9769
-141.614
-275.488
-479.945
-701.012
-918.111
-1110.51
-1269.69
-1394.32
-1487.85
-1555.72
-1603.59
-1636.51
-1658.82
-1673.63
-1682.86
-1687.95
-1690.04
-1689.97
-1688.41
-1685.84
-1682.65
-1679.1
-1675.34
-1671.43
-1668.69
4.53051
1.98971
1.75056
1.38818
0.905802
0.467563
-0.22284
-1.13111
-2.62486
-4.74301
-6.92232
-8.97706
-10.1599
-9.90976
-7.81232
-3.64819
3.49665
11.5086
18.8154
20.4683
11.9679
-16.8743
-65.0698
-153.941
-287.505
-489.806
-709.825
-926.696
-1120.14
-1281.25
-1408.31
-1504.37
-1574.6
-1624.52
-1659.13
-1682.82
-1698.72
-1708.8
-1714.56
-1717.19
-1717.55
-1716.32
-1714
-1710.99
-1707.57
-1703.88
-1700.02
-1697.37
4.55986
1.99921
1.75448
1.38558
0.893676
0.442443
-0.267524
-1.20582
-2.74201
-4.92063
-7.20109
-9.43739
-10.891
-11.0682
-9.56342
-6.23129
-0.141351
6.51484
12.1912
12.0373
1.55633
-28.7668
-78.4961
-167.659
-300.864
-500.838
-719.566
-936.023
-1130.38
-1293.38
-1422.85
-1521.46
-1594.05
-1645.97
-1682.19
-1707.12
-1723.94
-1734.68
-1740.93
-1743.95
-1744.64
-1743.72
-1741.71
-1739.02
-1735.93
-1732.57
-1729.15
-1726.88
4.58929
2.00898
1.75852
1.38313
0.881712
0.417179
-0.312795
-1.2823
-2.86292
-5.10601
-7.49623
-9.92903
-11.6807
-12.3289
-11.4875
-9.08023
-4.17752
0.97189
4.84247
2.70087
-9.91965
-41.8755
-93.2629
-182.775
-315.567
-513.064
-730.261
-946.119
-1141.24
-1306.08
-1437.97
-1539.11
-1614.05
-1667.94
-1705.69
-1731.72
-1749.25
-1760.4
-1766.85
-1769.88
-1770.49
-1769.4
-1767.19
-1764.26
-1760.93
-1757.34
-1753.68
-1751.25
4.61821
2.01847
1.76229
1.38033
0.869405
0.391213
-0.359069
-1.36087
-2.98792
-5.29957
-7.80839
-10.4526
-12.5304
-13.6938
-13.5882
-12.2001
-8.61977
-5.12884
-3.23741
-7.54452
-22.4573
-56.194
-109.354
-199.283
-331.609
-526.499
-741.932
-956.999
-1152.75
-1319.35
-1453.63
-1557.33
-1634.6
-1690.43
-1729.66
-1756.65
-1774.73
-1786.09
-1792.51
-1795.34
-1795.67
-1794.28
-1791.81
-1788.65
-1785.13
-1781.36
-1777.6
-1775.08
4.64719
2.02824
1.76615
1.37766
0.857253
0.365102
-0.405942
-1.44121
-3.11667
-5.50097
-8.13714
-11.0079
-13.4399
-15.1637
-15.8665
-15.5932
-13.47
-11.7904
-12.0512
-18.6981
-36.0503
-71.7137
-126.745
-217.153
-348.961
-541.135
-754.581
-968.667
-1164.9
-1333.17
-1469.84
-1576.08
-1655.71
-1713.47
-1754.13
-1782.01
-1800.54
-1812
-1818.26
-1820.71
-1820.54
-1818.55
-1815.41
-1811.53
-1807.25
-1802.7
-1798.13
-1794.83
4.67563
2.03772
1.76973
1.37464
0.844747
0.338297
-0.453805
-1.52359
-3.2494
-5.71042
-8.48273
-11.595
-14.4093
-16.7382
-18.322
-19.2586
-18.7265
-19.0079
-21.5874
-30.7405
-50.6695
-88.3965
-145.386
-236.343
-367.586
-556.954
-768.202
-981.112
-1177.67
-1347.52
-1486.54
-1595.36
-1677.35
-1737.08
-1779.15
-1807.9
-1826.83
-1838.39
-1844.5
-1846.68
-1846.19
-1843.89
-1840.45
-1836.29
-1831.74
-1826.94
-1822.14
-1818.68
4.70409
2.04748
1.77338
1.37176
0.832396
0.311357
-0.502235
-1.60763
-3.38569
-5.9274
-8.84431
-12.2129
-15.4369
-18.4154
-20.9511
-23.1914
-24.3805
-26.7696
-31.8293
-43.6456
-66.2791
-106.199
-165.219
-256.785
-387.421
-573.917
-782.771
-994.313
-1191.02
-1362.37
-1503.72
-1615.12
-1699.54
-1761.25
-1804.79
-1834.41
-1853.77
-1865.41
-1871.36
-1873.19
-1872.26
-1869.45
-1865.46
-1860.73
-1855.62
-1850.28
-1844.95
-1841.01
4.73197
2.05696
1.77674
1.36853
0.819687
0.283745
-0.551597
-1.69354
-3.52565
-6.15188
-9.22169
-12.8607
-16.5213
-20.1922
-23.7486
-27.3834
-30.4188
-35.0548
-42.7443
-57.3685
-82.8211
-125.051
-186.16
-278.399
-408.395
-591.972
-798.254
-1008.23
-1204.93
-1377.66
-1521.3
-1635.33
-1722.23
-1786.03
-1831.09
-1861.66
-1881.51
-1893.35
-1899.25
-1900.93
-1899.76
-1896.68
-1892.36
-1887.3
-1881.83
-1876.11
-1870.36
-1866.05
4.75983
2.06671
1.78014
1.36543
0.807139
0.256031
-0.601459
-1.78092
-3.66877
-6.38316
-9.6136
-13.5366
-17.659
-22.0635
-26.7058
-31.8214
-36.8206
-43.8348
-54.2937
-71.8569
-100.23
-144.875
-208.118
-301.084
-430.413
-611.046
-814.595
-1022.82
-1219.32
-1393.33
-1539.24
-1655.93
-1745.41
-1811.39
-1858.1
-1889.73
-1910.15
-1922.25
-1928.14
-1929.68
-1928.29
-1924.95
-1920.35
-1915.02
-1909.29
-1903.35
-1897.39
-1892.93
4.78707
2.07618
1.78323
1.36197
0.794235
0.227693
-0.652158
-1.86992
-3.81506
-6.62098
-10.0194
-14.2387
-18.8467
-24.0231
-29.8119
-36.4888
-43.56
-53.0719
-66.4232
-87.0398
-118.42
-165.567
-230.976
-324.724
-453.373
-631.056
-831.728
-1038
-1234.14
-1409.29
-1557.44
-1676.86
-1769.04
-1837.35
-1885.86
-1918.71
-1939.84
-1952.26
-1958.19
-1959.59
-1957.94
-1954.27
-1949.3
-1943.61
-1937.51
-1931.21
-1924.93
-1920.23
4.81424
2.08592
1.78636
1.35866
0.781505
0.199299
-0.703242
-1.96011
-3.9639
-6.86442
-10.4372
-14.9645
-20.0795
-26.0629
-33.053
-41.3639
-50.6038
-62.7202
-79.0721
-102.839
-137.295
-187.019
-254.615
-349.188
-477.15
-651.897
-849.569
-1053.72
-1249.29
-1425.48
-1575.83
-1698.03
-1793.05
-1863.87
-1914.4
-1948.7
-1970.72
-1983.58
-1989.63
-1990.91
-1988.98
-1984.9
-1979.47
-1973.27
-1966.67
-1959.86
-1953.06
-1947.91
4.84075
2.09538
1.78916
1.35499
0.768432
0.170344
-0.755021
-2.05156
-4.11519
-7.113
-10.8661
-15.7111
-21.3523
-28.1735
-36.4129
-46.4221
-57.9138
-72.7251
-92.1653
-119.158
-156.743
-209.101
-278.893
-374.335
-501.616
-673.456
-868.023
-1069.86
-1264.69
-1441.77
-1594.28
-1719.34
-1817.35
-1890.91
-1943.71
-1979.71
-2002.85
-2016.37
-2022.73
-2024.06
-2021.99
-2017.63
-2011.83
-2005.23
-1998.19
-1990.91
-1983.57
-1977.92
4.86714
2.10512
1.79196
1.35148
0.755552
0.141406
-0.807035
-2.14382
-4.26825
-7.36561
-11.3039
-16.475
-22.6583
-30.3438
-39.8726
-51.6333
-65.4452
-83.025
-105.622
-135.898
-176.646
-231.679
-303.666
-400.008
-526.62
-695.6
-886.974
-1086.34
-1280.22
-1458.05
-1612.68
-1740.66
-1841.83
-1918.36
-1973.69
-2011.68
-2036.22
-2050.63
-2057.53
-2059.1
-2057.06
-2052.59
-2046.59
-2039.72
-2032.41
-2024.83
-2017.16
-2011.25
4.89281
2.11457
1.79443
1.34762
0.742346
0.111994
-0.859569
-2.23693
-4.42287
-7.62158
-11.7489
-17.2527
-23.9913
-32.5618
-43.4112
-56.9659
-73.149
-93.5512
-119.351
-152.944
-196.872
-254.602
-328.773
-426.047
-552.014
-718.19
-906.302
-1103.03
-1295.77
-1474.19
-1630.88
-1761.84
-1866.33
-1946.07
-2004.22
-2044.5
-2070.71
-2086.26
-2093.89
-2095.83
-2093.93
-2089.39
-2083.19
-2076
-2068.27
-2060.19
-2052.02
-2045.81
4.91831
2.1243
1.79689
1.34392
0.729363
0.0826815
-0.912147
-2.33039
-4.5783
-7.87966
-12.1989
-18.0401
-25.3429
-34.8139
-47.0055
-62.3833
-80.9711
-104.23
-133.256
-170.178
-217.285
-277.72
-354.056
-452.281
-577.63
-741.071
-925.868
-1119.8
-1311.21
-1490.06
-1648.73
-1782.71
-1890.67
-1973.86
-2035.12
-2078
-2106.18
-2123.12
-2131.67
-2134.16
-2132.5
-2127.99
-2121.68
-2114.31
-2106.39
-2098.13
-2089.77
-2083.39
4.94303
2.13375
1.799
1.33987
0.716083
0.0529922
-0.965031
-2.4242
-4.73427
-8.13901
-12.6518
-18.833
-26.7058
-37.0861
-50.6316
-67.8485
-88.8551
-114.982
-147.234
-187.475
-237.74
-300.87
-379.343
-478.539
-603.305
-764.086
-945.526
-1136.52
-1326.39
-1505.48
-1666.04
-1803.07
-1914.65
-2001.51
-2066.16
-2111.93
-2142.37
-2160.97
-2170.67
-2173.89
-2172.68
-2168.4
-2162.16
-2154.75
-2146.7
-2138.23
-2129.71
-2123.51
4.96752
2.14348
1.80107
1.33601
0.703058
0.0235051
-1.01775
-2.51785
-4.88998
-8.39831
-13.1052
-19.6268
-28.0709
-39.3631
-54.2633
-73.3208
-96.7414
-125.727
-161.181
-204.708
-258.094
-323.897
-404.472
-504.645
-628.864
-787.064
-965.122
-1153.04
-1341.17
-1520.31
-1682.63
-1822.7
-1938.02
-2028.78
-2097.07
-2146.02
-2179.04
-2199.54
-2210.54
-2214.57
-2213.75
-2209.57
-2203.22
-2195.6
-2187.28
-2178.57
-2169.85
-2163.42
4.99117
2.15293
1.80278
1.33181
0.689766
-0.00624368
-1.07054
-2.61132
-5.04513
-8.65662
-13.5569
-20.4171
-29.4303
-41.6299
-57.8752
-78.7606
-104.57
-136.383
-174.99
-221.75
-278.2
-346.635
-429.271
-530.427
-654.136
-809.836
-984.493
-1169.21
-1355.4
-1534.36
-1698.3
-1841.38
-1960.54
-2055.38
-2127.59
-2180
-2215.87
-2238.6
-2251.22
-2256.37
-2256.3
-2252.6
-2246.53
-2239.04
-2230.75
-2221.95
-2213.05
-2206.76
5.01451
2.16266
1.80445
1.3278
0.67677
-0.0356847
-1.12293
-2.7041
-5.19889
-8.91259
-14.0042
-21.1991
-30.7746
-43.8707
-61.4406
-84.1261
-112.282
-146.866
-188.558
-238.475
-297.918
-368.933
-453.579
-555.711
-678.947
-832.226
-1003.47
-1184.88
-1368.91
-1547.47
-1712.84
-1858.88
-1981.93
-2081.03
-2157.37
-2213.5
-2252.53
-2277.74
-2292.14
-2298.43
-2298.98
-2295.51
-2289.35
-2281.62
-2272.99
-2263.88
-2254.72
-2248.19
5.03694
2.17213
1.80573
1.32348
0.663547
-0.0652697
-1.17514
-2.79614
-5.35095
-9.16527
-14.4452
-21.9686
-32.096
-46.0707
-64.9345
-89.3786
-119.817
-157.098
-201.782
-254.761
-317.108
-390.635
-477.235
-580.335
-703.13
-854.065
-1021.9
-1199.87
-1381.54
-1559.46
-1726.07
-1874.94
-2001.91
-2105.39
-2186.09
-2246.19
-2288.7
-2316.76
-2333.34
-2341.23
-2342.91
-2340.22
-2334.58
-2327.15
-2318.67
-2309.52
-2300.08
-2293.46
5.05899
2.18187
1.80695
1.31937
0.650661
-0.0944273
-1.22671
-2.88695
-5.50052
-9.41335
-14.8772
-22.7208
-33.3856
-48.2147
-68.3317
-94.4785
-127.12
-167.002
-214.567
-270.493
-335.641
-411.603
-500.093
-604.138
-726.52
-875.18
-1039.6
-1214.05
-1393.14
-1570.16
-1737.76
-1889.33
-2020.2
-2128.18
-2213.42
-2277.74
-2323.95
-2355.07
-2374
-2383.55
-2386.3
-2384.19
-2378.77
-2371.32
-2362.68
-2353.36
-2343.79
-2337.11
5.08004
2.19136
1.80779
1.31496
0.637588
-0.123599
-1.27786
-2.97648
-5.6473
-9.65593
-15.2983
-23.4517
-34.6361
-50.2892
-71.6096
-99.3909
-134.139
-176.508
-226.822
-285.565
-353.397
-431.701
-522.011
-626.976
-748.965
-895.412
-1056.43
-1227.25
-1403.57
-1579.4
-1747.73
-1901.81
-2036.52
-2149.07
-2239.03
-2307.83
-2357.95
-2392.33
-2413.94
-2425.57
-2429.87
-2428.93
-2424.4
-2417.62
-2409.55
-2400.66
-2391.32
-2385.27
5.10063
2.20112
1.80855
1.31076
0.624901
-0.152232
-1.32812
-3.06426
-5.79054
-9.89183
-15.7062
-24.1572
-35.8397
-52.2809
-74.7463
-104.082
-140.827
-185.551
-238.467
-299.882
-370.266
-450.812
-542.864
-648.711
-770.32
-914.606
-1072.22
-1239.34
-1412.67
-1587.04
-1755.81
-1912.18
-2050.62
-2167.77
-2262.61
-2336.07
-2390.31
-2428.19
-2452.64
-2466.33
-2471.9
-2471.61
-2467.24
-2460.28
-2451.8
-2442.46
-2432.63
-2426.15
5.12013
2.21064
1.80891
1.30629
0.612076
-0.180757
-1.37771
-3.15025
-5.92998
-10.1203
-16.0994
-24.8339
-36.9904
-54.1786
-77.7237
-108.523
-147.141
-194.075
-249.432
-313.358
-386.154
-468.828
-562.537
-669.224
-790.456
-932.626
-1086.85
-1250.18
-1420.34
-1592.95
-1761.83
-1920.21
-2062.24
-2183.98
-2283.82
-2362.19
-2420.92
-2462.72
-2490.45
-2506.79
-2514.43
-2515.75
-2512.63
-2506.63
-2498.93
-2490.19
-2480.59
-2474.45
5.13907
2.22044
1.80917
1.30205
0.599682
-0.208624
-1.42619
-3.23401
-6.06495
-10.3402
-16.4758
-25.4784
-38.0816
-55.9716
-80.5243
-112.689
-153.046
-202.034
-259.657
-325.924
-400.981
-485.663
-580.936
-688.41
-809.258
-949.346
-1100.19
-1259.66
-1426.45
-1597.02
-1765.66
-1925.74
-2071.15
-2197.44
-2302.37
-2385.86
-2449.37
-2495.33
-2526.5
-2545.63
-2555.36
-2558.11
-2555.87
-2550.33
-2542.79
-2534.02
-2524.45
-2518.57
5.15683
2.23
1.80903
1.29756
0.587194
-0.236257
-1.47376
-3.31552
-6.19526
-10.5509
-16.8341
-26.088
-39.1092
-57.6519
-83.1354
-116.559
-158.513
-209.387
-269.095
-337.523
-414.681
-501.241
-597.981
-706.181
-826.632
-964.662
-1112.13
-1267.69
-1430.94
-1599.15
-1767.19
-1928.63
-2077.17
-2207.89
-2317.99
-2406.8
-2475.37
-2525.82
-2560.9
-2583.28
-2595.54
-2600.12
-2599.21
-2594.56
-2587.62
-2579.33
-2570.05
-2564.72
5.17392
2.23984
1.80878
1.2933
0.575188
-0.263127
-1.51999
-3.39438
-6.32031
-10.7517
-17.1728
-26.6602
-40.0681
-59.2116
-85.5449
-120.115
-163.518
-216.105
-277.708
-348.11
-427.201
-515.505
-613.605
-722.462
-842.491
-978.479
-1122.59
-1274.19
-1433.72
-1599.28
-1766.34
-1928.74
-2080.11
-2215.13
-2330.41
-2424.72
-2498.64
-2553.99
-2593.37
-2619.4
-2634.61
-2641.39
-2642.06
-2638.47
-2632.16
-2624.16
-2614.99
-2610.04
5.18971
2.24945
1.80813
1.28882
0.563139
-0.289647
-1.5651
-3.47056
-6.43996
-10.9419
-17.4911
-27.1932
-40.9558
-60.6458
-87.7455
-123.347
-168.047
-222.168
-285.469
-357.654
-438.505
-528.408
-627.757
-737.197
-856.772
-990.724
-1131.48
-1279.09
-1434.75
-1597.37
-1763.05
-1925.99
-2079.84
-2218.94
-2339.39
-2439.35
-2518.92
-2579.55
-2623.59
-2653.67
-2672.42
-2682.14
-2685.12
-2683.39
-2678.58
-2671.83
-2663.64
-2659.77
5.20471
2.25934
1.80735
1.28459
0.551624
-0.315288
-1.60867
-3.5437
-6.5537
-11.121
-17.7876
-27.685
-41.7688
-61.9497
-89.73
-126.245
-172.087
-227.56
-292.363
-366.133
-448.565
-539.918
-640.397
-750.336
-869.415
-1001.33
-1138.75
-1282.33
-1433.98
-1593.37
-1757.28
-1920.32
-2076.24
-2219.16
-2344.68
-2450.39
-2535.84
-2602.08
-2651.18
-2685.77
-2708.48
-2721.51
-2727.13
-2727.46
-2724.21
-2718.64
-2711.32
-2708.52
5.2183
2.26901
1.80616
1.28015
0.540119
-0.340447
-1.6509
-3.61378
-6.6614
-11.2884
-18.0618
-28.1343
-42.5055
-63.1201
-91.4948
-128.804
-175.632
-232.273
-298.377
-373.533
-457.363
-550.008
-651.491
-761.836
-880.371
-1010.24
-1144.35
-1283.87
-1431.39
-1587.29
-1749.01
-1911.69
-2069.23
-2215.64
-2346.08
-2457.58
-2549.12
-2621.34
-2676.01
-2715.51
-2742.51
-2759.46
-2768.55
-2771.89
-2771.28
-2768.07
-2762.73
-2761.85
5.23096
2.27898
1.80485
1.27598
0.529209
-0.364617
-1.69137
-3.68045
-6.76259
-11.4436
-18.3126
-28.5399
-43.1635
-64.1542
-93.0362
-131.018
-178.677
-236.302
-303.508
-379.849
-464.889
-558.664
-661.017
-771.667
-889.6
-1017.42
-1148.22
-1283.7
-1426.98
-1579.13
-1738.29
-1900.12
-2058.82
-2208.32
-2343.46
-2460.73
-2558.56
-2637.05
-2697.65
-2742.53
-2774.25
-2795.33
-2808.02
-2814.42
-2816.34
-2815.23
-2811.66
-2812.59
5.24208
2.28872
1.80312
1.27163
0.51837
-0.388183
-1.7303
-3.74372
-6.85722
-11.5864
-18.5398
-28.9013
-43.7428
-65.0517
-94.3552
-132.891
-181.227
-239.655
-307.764
-385.087
-471.148
-565.884
-668.967
-779.818
-897.086
-1022.83
-1150.35
-1281.79
-1420.77
-1568.97
-1725.2
-1885.7
-2045.04
-2197.19
-2336.76
-2459.73
-2563.95
-2649.04
-2716.01
-2766.84
-2803.96
-2830
-2847.24
-2857.72
-2863.12
-2864.86
-2863.43
-2866.47
5.25212
2.29875
1.80126
1.26756
0.508184
-0.410644
-1.76729
-3.80324
-6.94488
-11.7162
-18.7427
-29.2175
-44.2421
-65.8121
-95.4519
-134.424
-183.287
-242.341
-311.157
-389.263
-476.154
-571.681
-675.349
-786.286
-902.819
-1026.48
-1150.75
-1278.19
-1412.82
-1556.87
-1709.83
-1868.53
-2027.98
-2182.31
-2325.93
-2454.46
-2565.16
-2657.1
-2730.85
-2788.04
-2830.88
-2861.83
-2883.4
-2898.07
-2907.37
-2912.6
-2913.95
-2919.36
5.26047
2.30856
1.799
1.26334
0.498127
-0.432372
-1.80254
-3.85906
-7.02557
-11.8329
-18.9213
-29.4888
-44.6626
-66.4371
-96.331