/*--------------------------------*- C++ -*----------------------------------*\
| =========                 |                                                 |
| \\      /  F ield         | OpenFOAM: The Open Source CFD Toolbox           |
|  \\    /   O peration     | Version:  2406                                  |
|   \\  /    A nd           | Website:  www.openfoam.com                      |
|    \\/     M anipulation  |                                                 |
\*---------------------------------------------------------------------------*/
FoamFile
{
    version     2.0;
    format      ascii;
    arch        "LSB;label=32;scalar=64";
    class       surfaceScalarField;
    location    "5";
    object      phi;
}
// * * * * * * * * * * * * * * * * * * * * * * * * * * * * * * * * * * * * * //

dimensions      [0 3 -1 0 0 0 0];

oriented        oriented;

internalField   nonuniform List<scalar> 
75600
(
2.16724
-1217.84
1218.28
1.79928
-1008.25
1008.62
1.49495
-834.775
835.079
1.2432
-691.172
691.424
1.03496
-572.311
572.519
0.86262
-473.933
474.106
0.719998
-392.522
392.665
0.601915
-325.159
325.277
0.504119
-269.436
269.534
0.423105
-223.358
223.439
0.355922
-185.272
185.339
0.3002
-153.821
153.877
0.253894
-127.876
127.922
0.215406
-106.506
106.545
0.183277
-88.9506
88.9828
0.156456
-74.5788
74.6056
0.133896
-62.8739
62.8964
0.114866
-53.4197
53.4388
0.0986394
-45.8759
45.8921
0.0847036
-39.9727
39.9867
0.072345
-35.5003
35.5128
0.0616511
-32.3025
32.314
0.0513669
-30.2652
30.2747
0.0423271
-29.3313
29.341
0.0331228
-29.3681
29.3767
0.0261807
-23.5769
23.5841
0.0205536
-18.9147
18.92
0.0162521
-15.1701
15.1745
0.0128447
-12.1585
12.1619
0.0101804
-9.73946
9.74216
0.0080885
-7.79828
7.80045
0.00644302
-6.24262
6.24431
0.00515465
-4.99702
4.99836
0.00414992
-4.00038
4.00143
0.00337338
-3.20341
3.20423
0.00277718
-2.56645
2.56708
0.00231964
-2.05771
2.05819
0.00196917
-1.6518
1.65218
0.00169891
-1.32826
1.32854
0.00148451
-1.07101
1.07123
0.00130774
-0.867172
0.867363
0.00115115
-0.706617
0.70678
0.00100383
-0.581403
0.581559
0.000854381
-0.485345
0.485502
0.000692089
-0.413716
0.413887
0.000560639
-0.363079
0.363218
0.000158514
-0.330449
0.330857
-0.315565
0.316409
-0.00067261
2.19475
-1217.39
1.82248
-1007.88
1.51439
-834.467
1.2594
-690.917
1.04838
-572.1
0.87367
-473.759
0.729038
-392.378
0.609266
-325.039
0.510049
-269.337
0.427849
-223.276
0.359682
-185.204
0.303147
-153.765
0.256179
-127.829
0.217158
-106.467
0.184607
-88.9182
0.157468
-74.5517
0.134678
-62.8512
0.115501
-53.4006
0.0992063
-45.8597
0.0852793
-39.9588
0.0729929
-35.4881
0.062475
-32.2917
0.0524034
-30.2556
0.0437243
-29.3225
0.0349268
-29.3598
0.0283557
-23.5704
0.0229914
-18.9097
0.0189396
-15.1662
0.0157465
-12.1554
0.0132771
-9.73709
0.0113614
-7.79644
0.00987335
-6.2412
0.00872607
-4.99593
0.00784723
-3.99955
0.00718184
-3.20278
0.00668036
-2.56598
0.00629991
-2.05736
0.00600618
-1.65153
0.00577098
-1.32804
0.00556702
-1.07082
0.00537573
-0.866992
0.0051787
-0.70643
0.00496525
-0.581195
0.00472327
-0.485105
0.00444194
-0.413434
0.00411289
-0.362748
0.0034715
-0.3298
-0.31443
0.00233523
2.22405
-1216.93
1.84685
-1007.5
1.53442
-834.154
1.27567
-690.658
1.06141
-571.886
0.883933
-473.581
0.736954
-392.231
0.615194
-324.918
0.514312
-269.236
0.430718
-223.192
0.361395
-185.134
0.30391
-153.707
0.256168
-127.781
0.21653
-106.428
0.183497
-88.8852
0.155998
-74.5242
0.132958
-62.8282
0.113636
-53.3813
0.0972906
-45.8433
0.0834103
-39.9449
0.0712537
-35.4759
0.0609906
-32.281
0.0512245
-30.2462
0.0430399
-29.314
0.0347777
-29.3518
0.028683
-23.5641
0.0236416
-18.9047
0.0198987
-15.1624
0.0169653
-12.1524
0.0147304
-9.73481
0.0130242
-7.79469
0.0117202
-6.23986
0.0107338
-4.99491
0.00999374
-3.99877
0.00944367
-3.2022
0.00903076
-2.56555
0.00871105
-2.05702
0.00844564
-1.65125
0.00820507
-1.32779
0.0079591
-1.07057
0.00768931
-0.866714
0.00737791
-0.706113
0.00701479
-0.580827
0.00658656
-0.484673
0.00607467
-0.412918
0.00540048
-0.362066
0.00446421
-0.328864
-0.313147
0.00318363
2.25539
-1216.47
1.8728
-1007.12
1.5557
-833.837
1.29292
-690.396
1.07521
-571.668
0.89481
-473.401
0.745347
-392.081
0.621499
-324.794
0.51886
-269.133
0.433801
-223.107
0.363263
-185.064
0.304777
-153.649
0.256217
-127.733
0.215922
-106.387
0.182371
-88.8517
0.154478
-74.4964
0.131153
-62.805
0.111647
-53.3618
0.0952125
-45.8269
0.0813343
-39.9311
0.0692568
-35.4638
0.0591883
-32.2706
0.0496592
-30.237
0.0418755
-29.3061
0.0340408
-29.3443
0.0283321
-23.5585
0.0235449
-18.9002
0.0200552
-15.159
0.0173415
-12.1498
0.0153101
-9.73286
0.0137886
-7.79323
0.0126478
-6.23878
0.0118014
-4.99411
0.0111789
-3.99819
0.0107193
-3.20177
0.0103659
-2.56522
0.0100735
-2.05675
0.00979724
-1.651
0.00950802
-1.32752
0.00917385
-1.07025
0.00877753
-0.866325
0.00830482
-0.705646
0.00774701
-0.58027
0.00709108
-0.484015
0.00631279
-0.412132
0.00533021
-0.361082
0.00420355
-0.327731
-0.311864
0.00291764
2.28888
-1216
1.90051
-1006.73
1.57846
-833.515
1.31146
-690.129
1.09017
-571.447
0.906742
-473.217
0.754733
-391.929
0.628746
-324.668
0.524321
-269.029
0.437774
-223.021
0.366
-184.992
0.306494
-153.589
0.257097
-127.683
0.216122
-106.346
0.182025
-88.8176
0.153704
-74.468
0.130055
-62.7814
0.110315
-53.3421
0.0937298
-45.8103
0.0797785
-39.9171
0.0676901
-35.4516
0.0576983
-32.2603
0.0482782
-30.2279
0.040718
-29.2983
0.0331224
-29.3369
0.0276347
-23.5528
0.0229897
-18.8956
0.0196575
-15.1557
0.0170923
-12.1472
0.0152077
-9.73093
0.0138244
-7.79181
0.0128081
-6.23772
0.0120659
-4.99334
0.0115275
-3.99762
0.0111249
-3.20134
0.0107978
-2.56487
0.0104996
-2.05644
0.0101804
-1.65067
0.00981327
-1.32714
0.00936746
-1.06979
0.00882912
-0.86578
0.00819073
-0.705002
0.00744835
-0.579522
0.00659683
-0.483154
0.00561978
-0.411154
0.00449327
-0.359949
0.00330686
-0.326546
-0.310626
0.00206884
2.32478
-1215.53
1.93035
-1006.34
1.60314
-833.188
1.33177
-689.857
1.10679
-571.222
0.920257
-473.031
0.765646
-391.775
0.637482
-324.54
0.531238
-268.922
0.443178
-222.933
0.370148
-184.919
0.309604
-153.529
0.259352
-127.633
0.21768
-106.305
0.183017
-88.783
0.154245
-74.4393
0.130243
-62.7575
0.110237
-53.3221
0.0934615
-45.7936
0.0793881
-39.903
0.0672322
-35.4395
0.0572418
-32.2501
0.0478501
-30.2188
0.0403999
-29.2908
0.0329232
-29.3298
0.02755
-23.5475
0.0229767
-18.8913
0.0197422
-15.1526
0.0172827
-12.1448
0.0155117
-9.72925
0.0142397
-7.7906
0.0133251
-6.23687
0.0126652
-4.99274
0.012189
-3.99718
0.0118201
-3.201
0.0114956
-2.56458
0.011167
-2.05614
0.0107818
-1.65031
0.0103167
-1.3267
0.00974544
-1.06923
0.00906099
-0.865101
0.00826557
-0.704207
0.00736589
-0.578617
0.0063683
-0.482158
0.00528519
-0.410065
0.00412418
-0.358788
0.00296783
-0.325387
-0.309463
0.00180847
2.36316
-1215.04
1.96227
-1005.93
1.62959
-832.855
1.3536
-689.581
1.12474
-570.993
0.934945
-472.841
0.777603
-391.617
0.64716
-324.409
0.539017
-268.814
0.449376
-222.843
0.375035
-184.845
0.313407
-153.467
0.262261
-127.582
0.219856
-106.262
0.184597
-88.7477
0.155346
-74.41
0.130964
-62.7332
0.110664
-53.3018
0.0936687
-45.7766
0.0794423
-39.8887
0.0671839
-35.4272
0.0571522
-32.2398
0.0477417
-30.2096
0.0403376
-29.2832
0.0329082
-29.3225
0.0275861
-23.5421
0.0230404
-18.8868
0.0198685
-15.1494
0.0174918
-12.1424
0.0158185
-9.72753
0.0146457
-7.78939
0.0138227
-6.23601
0.0132339
-4.99212
0.012807
-3.99672
0.0124555
-3.20062
0.0121151
-2.56423
0.0117349
-2.05575
0.0112635
-1.64983
0.010682
-1.32611
0.00997242
-1.06851
0.00913825
-0.86426
0.00819437
-0.703256
0.00716136
-0.577581
0.00606669
-0.48106
0.00493637
-0.408936
0.00380108
-0.357651
0.00271877
-0.324302
-0.308413
0.00167209
2.40411
-1214.55
1.99636
-1005.53
1.65788
-832.516
1.37701
-689.3
1.14404
-570.76
0.950818
-472.648
0.790607
-391.457
0.657772
-324.276
0.547637
-268.704
0.456341
-222.752
0.380627
-184.769
0.317863
-153.404
0.265779
-127.53
0.222605
-106.219
0.186716
-88.712
0.156957
-74.3803
0.132168
-62.7085
0.111548
-53.2813
0.0943065
-45.7594
0.0798985
-39.8744
0.0675069
-35.4148
0.0573969
-32.2296
0.0479252
-30.2003
0.0405113
-29.2758
0.0330646
-29.3153
0.0277361
-23.5368
0.0231762
-18.8824
0.0200347
-15.1463
0.0177206
-12.1402
0.0161314
-9.72603
0.0150483
-7.78838
0.0143085
-6.23533
0.0137811
-4.99164
0.013391
-3.99637
0.0130415
-3.20031
0.0126668
-2.56389
0.0122151
-2.05533
0.0116384
-1.64928
0.0109246
-1.32541
0.0100679
-1.06767
0.0090861
-0.863278
0.008009
-0.702174
0.00687564
-0.576449
0.00572662
-0.479911
0.0046006
-0.407815
0.00352688
-0.356573
0.00254623
-0.32332
-0.307493
0.00163251
2.44774
-1214.05
2.03272
-1005.11
1.68808
-832.172
1.40206
-689.014
1.16478
-570.523
0.967944
-472.451
0.804725
-391.294
0.669384
-324.141
0.557167
-268.592
0.464141
-222.659
0.386993
-184.692
0.323042
-153.34
0.269977
-127.477
0.225997
-106.175
0.189447
-88.6754
0.159148
-74.35
0.133923
-62.6833
0.112955
-53.2603
0.0954382
-45.7419
0.0808168
-39.8597
0.0682568
-35.4022
0.0580244
-32.2191
0.0484415
-30.1909
0.0409519
-29.2682
0.03341
-29.3078
0.0280065
-23.5313
0.0233826
-18.8778
0.0202329
-15.1432
0.0179561
-12.1379
0.0164338
-9.72446
0.0154277
-7.78733
0.0147601
-6.23462
0.0142823
-4.99114
0.0139146
-3.99597
0.0135503
-3.19992
0.0131226
-2.56344
0.0125803
-2.05478
0.0118824
-1.64858
0.0110263
-1.32455
0.0100222
-1.06665
0.00890462
-0.862152
0.00772058
-0.700986
0.00652572
-0.575251
0.0053672
-0.478759
0.00428531
-0.406728
0.00329708
-0.355586
0.0024303
-0.322448
-0.306702
0.00165285
2.49418
-1213.54
2.07143
-1004.69
1.72031
-831.821
1.42885
-688.723
1.18703
-570.281
0.986419
-472.25
0.820053
-391.127
0.682099
-324.003
0.567708
-268.477
0.472881
-222.564
0.394241
-184.613
0.329055
-153.275
0.274969
-127.423
0.230146
-106.13
0.192901
-88.6382
0.162033
-74.3192
0.136343
-62.6577
0.114995
-53.239
0.097171
-45.7241
0.0822996
-39.8449
0.06953
-35.3895
0.0591243
-32.2087
0.0493706
-30.1813
0.0417265
-29.2606
0.0339976
-29.3003
0.0284377
-23.5259
0.0236908
-18.8732
0.0204863
-15.1401
0.018216
-12.1357
0.0167389
-9.72307
0.0157938
-7.78645
0.0151843
-6.23407
0.0147419
-4.99076
0.0143799
-3.99565
0.013983
-3.19956
0.0134835
-2.56298
0.0128335
-2.05416
0.0120021
-1.64776
0.011
-1.32356
0.00985672
-1.06551
0.00862521
-0.860915
0.00736993
-0.699732
0.00615375
-0.574037
0.00502646
-0.477636
0.00401437
-0.405713
0.00312634
-0.354699
0.00237598
-0.32168
-0.306037
0.00171644
2.54353
-1213.02
2.11262
-1004.26
1.75465
-831.463
1.45748
-688.426
1.2109
-570.034
1.00633
-472.046
0.836685
-390.958
0.696007
-323.862
0.579362
-268.361
0.482666
-222.467
0.402477
-184.533
0.336009
-153.208
0.280862
-127.367
0.235161
-106.085
0.19719
-88.6003
0.165722
-74.2877
0.139535
-62.6315
0.117775
-53.2172
0.099607
-45.7059
0.0844448
-39.8296
0.0714184
-35.3764
0.06078
-32.1978
0.0507862
-30.1714
0.0428955
-29.2526
0.0348717
-29.2923
0.0290606
-23.52
0.0241212
-18.8683
0.0208075
-15.1367
0.0185066
-12.1334
0.0170482
-9.72157
0.0161439
-7.7855
0.0155751
-6.23347
0.0151517
-4.99031
0.014777
-3.99525
0.014329
-3.1991
0.0137398
-2.56238
0.0129678
-2.05338
0.0119958
-1.64678
0.0108517
-1.32241
0.00958634
-1.06424
0.00827078
-0.859595
0.00698277
-0.698441
0.00578457
-0.572846
0.00471748
-0.476563
0.00379344
-0.404795
0.0030102
-0.353906
0.00235655
-0.321034
-0.30548
0.00179727
2.59594
-1212.5
2.15639
-1003.82
1.79121
-831.098
1.48803
-688.122
1.23648
-569.783
1.02778
-471.837
0.854721
-390.785
0.711219
-323.719
0.592236
-268.242
0.493606
-222.368
0.411816
-184.451
0.344023
-153.141
0.287776
-127.311
0.241165
-106.038
0.202435
-88.5616
0.170335
-74.2557
0.143618
-62.6049
0.121412
-53.1951
0.10286
-45.6874
0.0873605
-39.8142
0.0740233
-35.3631
0.0630842
-32.1869
0.0527695
-30.1613
0.0445257
-29.2444
0.0360816
-29.2841
0.0299093
-23.5139
0.024697
-18.8633
0.0212101
-15.1334
0.0188344
-12.1311
0.0173628
-9.72018
0.016475
-7.78468
0.0159262
-6.23298
0.0155027
-4.98995
0.0150954
-3.99489
0.0145773
-3.19862
0.0138819
-2.56172
0.0129768
-2.0525
0.0118629
-1.64569
0.0105886
-1.32114
0.00922549
-1.06287
0.00786224
-0.858232
0.00657729
-0.697157
0.0054298
-0.571701
0.00443878
-0.475571
0.0036093
-0.403963
0.00291284
-0.353209
0.00234997
-0.320469
-0.30499
0.0018619
2.65152
-1211.96
2.20286
-1003.37
1.83009
-830.725
1.52063
-687.813
1.26387
-569.526
1.05088
-471.624
0.874274
-390.608
0.727849
-323.572
0.606451
-268.12
0.505826
-222.268
0.422387
-184.368
0.353228
-153.071
0.295847
-127.254
0.248291
-105.99
0.208772
-88.5221
0.176008
-74.2229
0.148728
-62.5777
0.126037
-53.1724
0.107057
-45.6684
0.0911689
-39.7982
0.0774597
-35.3493
0.0661412
-32.1754
0.0554127
-30.1506
0.0466924
-29.2356
0.037683
-29.2751
0.031023
-23.5072
0.0254444
-18.8577
0.0217105
-15.1296
0.019208
-12.1286
0.017685
-9.71861
0.0167849
-7.78374
0.0162316
-6.23239
0.0157867
-4.98948
0.0153255
-3.99441
0.0147186
-3.198
0.013903
-2.5609
0.012859
-2.05145
0.0116093
-1.64443
0.010224
-1.31974
0.00879412
-1.06143
0.00741815
-0.856852
0.00616829
-0.695913
0.00508814
-0.570614
0.00418215
-0.474667
0.00343505
-0.403206
0.00282033
-0.352593
0.00231436
-0.319958
-0.304541
0.00188021
2.71043
-1211.4
2.25215
-1002.91
1.87141
-830.344
1.55536
-687.497
1.29319
-569.264
1.07574
-471.407
0.89547
-390.428
0.746025
-323.423
0.622143
-267.996
0.519469
-222.165
0.434337
-184.283
0.363776
-153.001
0.305227
-127.195
0.256699
-105.942
0.216359
-88.4818
0.1829
-74.1895
0.155021
-62.5499
0.131803
-53.1492
0.112348
-45.649
0.0960117
-39.7819
0.0818602
-35.3352
0.070073
-32.1637
0.058824
-30.1395
0.0494859
-29.2264
0.0397446
-29.2655
0.0324523
-23.5
0.0264002
-18.8518
0.0223339
-15.1256
0.0196438
-12.126
0.0180246
-9.71707
0.0170781
-7.78287
0.0164921
-6.23186
0.0160018
-4.98905
0.0154645
-3.99392
0.0147511
-3.19733
0.0138043
-2.55998
0.012621
-2.05028
0.0112484
-1.64306
0.00977816
-1.31827
0.00831573
-1.05997
0.00695818
-0.855496
0.00576776
-0.694721
0.00476299
-0.569604
0.00393681
-0.473834
0.00326193
-0.40252
0.00270421
-0.352029
0.00225772
-0.319476
-0.304122
0.00185964
2.7728
-1210.84
2.3044
-1002.44
1.9153
-829.955
1.59238
-687.174
1.32457
-568.996
1.10251
-471.185
0.918448
-390.244
0.765903
-323.27
0.639472
-267.87
0.534701
-222.06
0.447839
-184.196
0.375844
-152.929
0.316101
-127.136
0.26657
-105.892
0.225382
-88.4406
0.191194
-74.1552
0.162679
-62.5214
0.13889
-53.1254
0.118906
-45.629
0.102058
-39.765
0.0873852
-35.3204
0.0750275
-32.1512
0.0631358
-30.1276
0.0530186
-29.2162
0.0423552
-29.2549
0.0342661
-23.4919
0.0276177
-18.8452
0.0231218
-15.1211
0.0201737
-12.123
0.0184062
-9.71526
0.0173736
-7.78179
0.0167227
-6.23118
0.0161607
-4.98847
0.0155249
-3.99326
0.0146892
-3.19648
0.0136047
-2.55889
0.0122891
-2.04896
0.0108142
-1.64158
0.00928862
-1.31674
0.00782865
-1.0585
0.00651868
-0.854189
0.00540097
-0.693595
0.0044785
-0.568678
0.0037318
-0.473071
0.00312161
-0.401906
0.00262708
-0.351515
0.00220712
-0.319065
-0.303762
0.00183886
2.83877
-1210.26
2.35973
-1001.96
1.96187
-829.557
1.63178
-686.844
1.35811
-568.722
1.13128
-470.958
0.943324
-390.056
0.787595
-323.114
0.658559
-267.741
0.551649
-221.953
0.463023
-184.107
0.389567
-152.855
0.328605
-127.075
0.278048
-105.842
0.235982
-88.3987
0.201034
-74.1204
0.171842
-62.4923
0.147435
-53.1011
0.126863
-45.6085
0.109428
-39.7476
0.0941444
-35.3052
0.0811008
-32.1382
0.0684275
-30.115
0.057348
-29.2052
0.0455461
-29.2432
0.0364739
-23.4829
0.0290897
-18.8379
0.0240528
-15.1162
0.0207651
-12.1198
0.0187887
-9.71337
0.0176244
-7.78069
0.0168719
-6.23049
0.0162093
-4.98787
0.0154525
-3.99255
0.0144808
-3.19555
0.013257
-2.55769
0.0118221
-2.04754
0.0102697
-1.64003
0.00872555
-1.31519
0.00729451
-1.05708
0.00605485
-0.852945
0.00501807
-0.692554
0.00417998
-0.567829
0.00349806
-0.472383
0.00294959
-0.401348
0.00248109
-0.351041
0.00210324
-0.318682
-0.303414
0.00175856
2.90852
-1209.67
2.41829
-1001.47
2.01125
-829.15
1.6737
-686.506
1.39397
-568.442
1.16221
-470.726
0.970257
-389.864
0.81128
-322.955
0.679591
-267.609
0.570509
-221.844
0.480095
-184.017
0.405158
-152.78
0.342955
-127.012
0.291349
-105.79
0.248381
-88.3557
0.212638
-74.0846
0.18273
-62.4624
0.157652
-53.076
0.136426
-45.5873
0.118323
-39.7295
0.102329
-35.2891
0.0884685
-32.1242
0.0748566
-30.1014
0.0626077
-29.1929
0.0494225
-29.23
0.0391582
-23.4726
0.0308795
-18.8297
0.0251763
-15.1105
0.0214559
-12.1161
0.0192014
-9.71107
0.017853
-7.77931
0.0169578
-6.22956
0.0161637
-4.98705
0.0152645
-3.99163
0.0141468
-3.19441
0.0127887
-2.55632
0.011254
-2.04599
0.00965587
-1.63842
0.00812055
-1.31365
0.00675018
-1.0557
0.00558927
-0.85178
0.00463761
-0.691596
0.00387255
-0.567057
0.00325088
-0.471755
0.00274837
-0.400836
0.00231374
-0.350601
0.00194949
-0.31831
-0.303076
0.00161618
2.9822
-1209.07
2.48021
-1000.97
2.06359
-828.733
1.71828
-686.161
1.43227
-568.156
1.19546
-470.489
0.999418
-389.668
0.83713
-322.793
0.702752
-267.475
0.591473
-221.733
0.499256
-183.925
0.422824
-152.704
0.359366
-126.949
0.306693
-105.738
0.262797
-88.3119
0.226227
-74.0481
0.195558
-62.4318
0.169753
-53.0502
0.147803
-45.5654
0.12894
-39.7106
0.112122
-35.2723
0.0972989
-32.1095
0.082571
-30.0868
0.0689208
-29.1794
0.054077
-29.2153
0.0423865
-23.4611
0.0330353
-18.8205
0.0265241
-15.1041
0.0222653
-12.1119
0.0196534
-9.70853
0.0180617
-7.77779
0.0169786
-6.22854
0.0160199
-4.98615
0.0149581
-3.99062
0.0136881
-3.19318
0.0122061
-2.55485
0.0105967
-2.04439
0.00898328
-1.63681
0.00749039
-1.31216
0.00619412
-1.05441
0.00512181
-0.850705
0.00425144
-0.690721
0.00355877
-0.566356
0.00298763
-0.471179
0.00252568
-0.400367
0.00211191
-0.350183
0.0017626
-0.317957
-0.302745
0.00143475
3.05999
-1208.45
2.54567
-1000.46
2.11905
-828.307
1.76567
-685.808
1.47319
-567.864
1.23119
-470.247
1.03098
-389.467
0.865333
-322.627
0.72824
-267.338
0.614753
-221.619
0.520724
-183.831
0.44279
-152.626
0.378069
-126.884
0.324314
-105.684
0.279468
-88.267
0.242038
-74.0106
0.210563
-62.4004
0.183971
-53.0236
0.161217
-45.5426
0.141493
-39.6909
0.123725
-35.2545
0.107775
-32.0935
0.0917334
-30.0708
0.076422
-29.164
0.0596111
-29.1985
0.046234
-23.4477
0.0356102
-18.8099
0.028133
-15.0966
0.0232159
-12.107
0.0201572
-9.70544
0.0182554
-7.77586
0.0169345
-6.2272
0.0157769
-4.98497
0.0145346
-3.98936
0.0131116
-3.19174
0.0115226
-2.55325
0.00986697
-2.04273
0.00826847
-1.63521
0.00684145
-1.31072
0.00563168
-1.0532
0.00464923
-0.849717
0.00385611
-0.689927
0.00322992
-0.565724
0.00270917
-0.470658
0.00229212
-0.399946
0.00191398
-0.349804
0.00159178
-0.317637
-0.302448
0.00129885
3.14207
-1207.82
2.61483
-999.931
2.17776
-827.87
1.81603
-685.446
1.51689
-567.565
1.26957
-470
1.06513
-389.263
0.89609
-322.458
0.756269
-267.198
0.640572
-221.504
0.544734
-183.735
0.4653
-152.547
0.399314
-126.818
0.344467
-105.629
0.298649
-88.2213
0.260327
-73.9724
0.227998
-62.3681
0.200553
-52.9963
0.176908
-45.5191
0.156211
-39.6702
0.137353
-35.2357
0.120095
-32.0763
0.102517
-30.0532
0.0852552
-29.1469
0.0661344
-29.1794
0.0507825
-23.4325
0.0386633
-18.7979
0.0300436
-15.088
0.0243337
-12.1014
0.0207273
-9.7019
0.0184408
-7.77365
0.0168279
-6.22566
0.0154358
-4.98364
0.0139972
-3.98796
0.0124249
-3.19019
0.0107494
-2.55159
0.00907582
-2.04106
0.00752404
-1.63365
0.00617576
-1.30938
0.00506101
-1.05208
0.00416214
-0.848815
0.00343643
-0.689197
0.00285657
-0.565141
0.00236475
-0.470165
0.00196258
-0.399537
0.00157473
-0.349427
0.00125724
-0.317289
-0.30211
0.000942941
3.22864
-1207.16
2.68785
-999.39
2.23991
-827.421
1.86952
-685.075
1.56353
-567.259
1.3108
-469.747
1.10206
-389.054
0.929613
-322.286
0.787066
-267.055
0.669168
-221.386
0.571535
-183.637
0.490613
-152.466
0.423365
-126.751
0.36742
-105.573
0.320614
-88.1745
0.281366
-73.9331
0.248133
-62.3349
0.219764
-52.9679
0.195134
-45.4944
0.173341
-39.6483
0.153236
-35.2155
0.134467
-32.0575
0.115107
-30.0339
0.0955771
-29.1273
0.0737653
-29.1576
0.0561215
-23.4148
0.0422595
-18.7841
0.0323021
-15.0781
0.025649
-12.0947
0.0213823
-9.6976
0.018628
-7.77087
0.0166647
-6.22368
0.0150023
-4.98196
0.0133551
-3.9863
0.0116423
-3.18847
0.00990416
-2.54985
0.00824307
-2.03939
0.00675492
-1.63216
0.00550654
-1.30812
0.00448576
-1.05106
0.00367337
-0.847999
0.00301512
-0.688535
0.0024903
-0.564617
0.00204009
-0.469715
0.00166787
-0.399177
0.00132443
-0.349084
0.000999351
-0.317005
-0.301841
0.000700725
3.31988
-1206.5
2.76491
-998.835
2.30565
-826.962
1.92633
-684.696
1.61331
-566.946
1.35506
-469.489
1.14199
-388.841
0.966129
-322.11
0.820868
-266.91
0.700794
-221.266
0.601392
-183.538
0.519002
-152.383
0.450503
-126.683
0.393461
-105.516
0.345651
-88.1267
0.305444
-73.893
0.271254
-62.3008
0.241885
-52.9386
0.216166
-45.4688
0.19314
-39.6254
0.171618
-35.194
0.151115
-32.0371
0.129702
-30.0125
0.107551
-29.1053
0.0826301
-29.1328
0.0623468
-23.3946
0.0464698
-18.7683
0.0349594
-15.0667
0.0271961
-12.087
0.0221438
-9.69263
0.0188301
-7.76764
0.0164539
-6.22137
0.0144849
-4.98005
0.0126188
-3.98447
0.0107772
-3.18665
0.00900095
-2.54809
0.00737635
-2.03777
0.00597766
-1.63076
0.00483048
-1.30698
0.00391014
-1.05013
0.00318277
-0.84727
0.00258709
-0.687936
0.00211328
-0.564144
0.00168823
-0.469293
0.00135453
-0.398837
0.000997031
-0.348741
0.000733854
-0.3167
-0.301548
0.000475218
3.41602
-1205.81
2.84622
-998.265
2.37518
-826.491
1.98662
-684.308
1.66641
-566.625
1.40257
-469.225
1.18514
-388.624
1.00587
-321.931
0.857928
-266.762
0.735716
-221.143
0.63458
-183.437
0.550754
-152.3
0.481025
-126.613
0.42289
-105.458
0.374064
-88.0779
0.332866
-73.8518
0.297662
-62.2656
0.267209
-52.9081
0.240289
-45.4418
0.215882
-39.6009
0.192754
-35.1708
0.170272
-32.0145
0.146507
-29.9887
0.121354
-29.0802
0.092863
-29.1043
0.0695626
-23.3713
0.0513712
-18.7502
0.0380719
-15.0533
0.0290142
-12.0779
0.023038
-9.68661
0.0190646
-7.76364
0.0162089
-6.2185
0.0138977
-4.97772
0.0118055
-3.98237
0.00984953
-3.18469
0.00805829
-2.54629
0.00649332
-2.03621
0.00519425
-1.62946
0.00416112
-1.30595
0.0033392
-1.04931
0.0027041
-0.846631
0.0021794
-0.687405
0.00177196
-0.563733
0.001413
-0.468925
0.00113003
-0.398561
0.000865528
-0.348462
0.000618382
-0.316496
-0.30137
0.00039796
3.51728
-1205.1
2.93195
-997.68
2.44868
-826.008
2.0506
-683.91
1.72304
-566.298
1.45352
-468.955
1.23173
-388.402
1.04909
-321.748
0.898506
-266.611
0.774208
-221.019
0.67139
-183.334
0.586167
-152.214
0.515235
-126.542
0.456018
-105.399
0.406167
-88.0281
0.363944
-73.8096
0.327669
-62.2294
0.296044
-52.8766
0.267799
-45.4136
0.241847
-39.575
0.216907
-35.1459
0.192181
-31.9899
0.165738
-29.9623
0.137164
-29.0517
0.104605
-29.0718
0.0778777
-23.3447
0.0570467
-18.7295
0.0417012
-15.0381
0.0311469
-12.0675
0.0240949
-9.67963
0.0193527
-7.75898
0.0159473
-6.21517
0.0132574
-4.97508
0.0109328
-3.98008
0.00887512
-3.18265
0.00708802
-2.54451
0.00560262
-2.03472
0.00441092
-1.62827
0.0034963
-1.30503
0.00278205
-1.04859
0.00223332
-0.846078
0.00178565
-0.68695
0.00142446
-0.56336
0.00110331
-0.468595
0.000840922
-0.398286
0.000569411
-0.348184
0.000362435
-0.316281
-0.301164
0.000161502
3.62389
-1204.37
3.02234
-997.078
2.52636
-825.512
2.11847
-683.502
1.78339
-565.963
1.50816
-468.68
1.28201
-388.176
1.09602
-321.562
0.942871
-266.458
0.816554
-220.893
0.712116
-183.229
0.625548
-152.128
0.55345
-126.47
0.493166
-105.338
0.442283
-87.9772
0.399002
-73.7663
0.361593
-62.192
0.328701
-52.8437
0.299
-45.3839
0.271328
-39.5472
0.244351
-35.1189
0.217091
-31.9626
0.187616
-29.9328
0.155172
-29.0193
0.118002
-29.0346
0.0874084
-23.3142
0.0635848
-18.7057
0.0459144
-15.0204
0.0336432
-12.0552
0.0253499
-9.6713
0.0197212
-7.75333
0.0156919
-6.21113
0.0125872
-4.97196
0.0100243
-3.97751
0.0078757
-3.1805
0.00610927
-2.54274
0.00470804
-2.03332
0.00363879
-1.6272
0.00283839
-1.30423
0.00224359
-1.04799
0.00179659
-0.845624
0.00145023
-0.686599
0.00116954
-0.563075
0.000942435
-0.468363
0.000745836
-0.398086
0.000572551
-0.348006
0.00042351
-0.316129
-0.301026
0.000288532
3.73609
-1203.63
3.11758
-996.46
2.60841
-825.003
2.19042
-683.084
1.84769
-565.62
1.56669
-468.399
1.3362
-387.945
1.14695
-321.373
0.991295
-266.303
0.863041
-220.765
0.757058
-183.124
0.669208
-152.04
0.595986
-126.397
0.534657
-105.277
0.482738
-87.9254
0.438366
-73.722
0.399757
-62.1535
0.365496
-52.8095
0.334196
-45.3527
0.304613
-39.5177
0.275358
-35.0897
0.245252
-31.9326
0.212362
-29.9
0.175567
-28.9826
0.133204
-28.9923
0.0982735
-23.2794
0.0710785
-18.6786
0.050783
-15.0002
0.0365567
-12.0411
0.0268432
-9.66166
0.0202009
-7.74676
0.0154695
-6.20647
0.0119116
-4.96845
0.00910152
-3.97473
0.00686857
-3.17828
0.00512999
-2.54101
0.00382447
-2.03202
0.00286427
-1.62624
0.00218344
-1.30354
0.00169969
-1.0475
0.00135156
-0.845272
0.00109827
-0.68634
0.000897724
-0.562866
0.000742915
-0.468201
0.000604171
-0.397937
0.00047919
-0.347876
0.000361698
-0.316004
-0.300898
0.000238498
3.85416
-1202.85
3.21795
-995.823
2.69508
-824.48
2.26671
-682.655
1.9162
-565.269
1.62941
-468.112
1.39463
-387.71
1.20217
-321.18
1.04412
-266.144
0.914022
-220.634
0.806584
-183.016
0.717524
-151.951
0.643233
-126.322
0.580886
-105.215
0.52793
-87.8724
0.482433
-73.6765
0.442557
-62.1136
0.406819
-52.7737
0.373767
-45.3196
0.342071
-39.4859
0.310277
-35.0578
0.276992
-31.8993
0.240279
-29.8632
0.198619
-28.941
0.150441
-28.9442
0.110676
-23.2396
0.0797047
-18.6477
0.0564638
-14.977
0.0400269
-12.0246
0.0287019
-9.65029
0.0209109
-7.73895
0.0153965
-6.20094
0.0113451
-4.96439
0.00827765
-3.97165
0.00596173
-3.17597
0.00425587
-2.53931
0.00303963
-2.0308
0.00219259
-1.62539
0.001613
-1.30296
0.0012355
-1.04712
0.000990437
-0.845029
0.000838321
-0.686187
0.000740468
-0.562776
0.000687337
-0.468151
0.000635541
-0.397896
0.000617338
-0.347859
0.000548841
-0.315946
-0.300846
0.000498131
3.97835
-1202.06
3.32364
-995.169
2.78657
-823.943
2.34753
-682.216
1.9891
-564.911
1.6965
-467.82
1.45746
-387.471
1.2619
-320.985
1.10155
-265.984
0.969717
-220.503
0.860921
-182.907
0.770734
-151.861
0.69543
-126.247
0.632097
-105.151
0.578104
-87.8185
0.531448
-73.6299
0.490232
-62.0725
0.452901
-52.7365
0.417934
-45.2847
0.383907
-39.4519
0.349295
-35.0232
0.312477
-31.8626
0.271505
-29.8223
0.224439
-28.894
0.169788
-28.8896
0.124662
-23.1946
0.0894879
-18.6126
0.0629612
-14.9505
0.0440415
-12.0058
0.0309001
-9.6372
0.0218173
-7.72993
0.0154318
-6.19462
0.010842
-4.95984
0.00749901
-3.96834
0.00509352
-3.17358
0.00342124
-2.53764
0.0022902
-2.02967
0.00153616
-1.62463
0.00104997
-1.30248
0.000734882
-1.04681
0.00055592
-0.844854
0.000430881
-0.686072
0.000384506
-0.562739
0.000334857
-0.468124
0.000344373
-0.397893
0.00030605
-0.347868
0.000315884
-0.315865
-0.300776
0.000335268
4.10894
-1201.24
3.43489
-994.494
2.88308
-823.391
2.43305
-681.766
2.06656
-564.545
1.76813
-467.521
1.52489
-387.228
1.32632
-320.786
1.16379
-265.822
1.03034
-220.369
0.920295
-182.797
0.829068
-151.769
0.752815
-126.171
0.688529
-105.087
0.633501
-87.7635
0.585649
-73.5821
0.543015
-62.0299
0.503969
-52.6974
0.466914
-45.2477
0.430325
-39.4153
0.392601
-34.9854
0.351876
-31.8218
0.306185
-29.7766
0.253143
-28.841
0.191326
-28.8278
0.14029
-23.1436
0.100462
-18.5729
0.0702902
-14.9204
0.0485997
-11.9841
0.0334247
-9.62199
0.0228982
-7.71938
0.0155471
-6.18725
0.0103682
-4.95465
0.00672262
-3.96469
0.0042159
-3.17107
0.00256182
-2.53599
0.00151746
-2.02861
0.000855964
-1.62397
0.000474933
-1.30209
0.000244139
-1.04658
0.000139071
-0.844746
6.57869e-05
-0.68601
6.06661e-05
-0.562731
5.01246e-05
-0.468125
8.22441e-05
-0.397945
0.000115619
-0.347896
0.000118159
-0.315986
-0.30092
0.000156624
4.24623
-1200.4
3.55198
-993.8
2.98487
-822.824
2.52353
-681.305
2.14886
-564.17
1.84458
-467.217
1.59721
-386.981
1.39573
-320.584
1.23114
-265.657
1.09621
-220.234
0.985025
-182.686
0.892852
-151.677
0.815719
-126.094
0.750518
-105.022
0.694456
-87.7075
0.645371
-73.533
0.601239
-61.9858
0.560349
-52.6566
0.521023
-45.2084
0.48163
-39.3759
0.440484
-34.9443
0.39546
-31.7769
0.344569
-29.7257
0.284961
-28.7815
0.215257
-28.7581
0.157741
-23.0863
0.112791
-18.5281
0.0785997
-14.8863
0.0538371
-11.9594
0.0363999
-9.60459
0.0242695
-7.7073
0.0158505
-6.17888
0.0100215
-4.94886
0.0060374
-3.96073
0.00340562
-3.16846
0.00177377
-2.53436
0.000814483
-2.02766
0.000273235
-1.62341
-1.1034e-07
-1.30181
-0.000133257
-1.04644
-0.00017214
-0.844694
-0.000196947
-0.685982
-0.000203724
-0.56271
-0.000231828
-0.468102
-0.000221653
-0.397916
-0.000295691
-0.34785
-0.000193746
-0.315983
-0.300929
-8.49722e-05
4.39053
-1199.52
3.67519
-993.085
3.09218
-822.241
2.61921
-680.832
2.2362
-563.787
1.92606
-466.907
1.67463
-386.729
1.47035
-320.38
1.30384
-265.49
1.16755
-220.098
1.05535
-182.574
0.962331
-151.584
0.884389
-126.016
0.818311
-104.956
0.761218
-87.6504
0.710859
-73.4827
0.665146
-61.9401
0.622276
-52.6138
0.58049
-45.1666
0.538041
-39.3334
0.493148
-34.8993
0.443419
-31.7272
0.386828
-29.6691
0.320046
-28.7148
0.241708
-28.6798
0.177127
-23.0217
0.126573
-18.4776
0.0879744
-14.8477
0.0598271
-11.9313
0.039889
-9.58461
0.0259861
-7.69338
0.0163888
-6.16928
0.0098396
-4.94231
0.00546886
-3.95637
0.00268292
-3.16568
0.00105015
-2.53272
0.000175866
-2.02677
-0.000274031
-1.62297
-0.000420091
-1.30164
-0.000439075
-1.04642
-0.000349802
-0.844758
-0.00025917
-0.686073
-0.000134983
-0.562803
-2.03041e-05
-0.468207
9.71099e-05
-0.398021
0.000232809
-0.347959
0.000315153
-0.316155
-0.301143
0.000436594
4.54219
-1198.62
3.80478
-992.348
3.20527
-821.641
2.72031
-680.347
2.32881
-563.395
2.01278
-466.591
1.75735
-386.474
1.55039
-320.173
1.38209
-265.322
1.24457
-219.96
1.13147
-182.461
1.03771
-151.49
0.959029
-125.937
0.892112
-104.889
0.833989
-87.5923
0.782315
-73.4311
0.734931
-61.8928
0.689941
-52.5689
0.645496
-45.1222
0.599729
-39.2876
0.550753
-34.8504
0.495903
-31.6724
0.433098
-29.6064
0.358522
-28.6403
0.27079
-28.5922
0.19855
-22.9496
0.1419
-18.421
0.0984965
-14.8044
0.0666433
-11.8995
0.0439572
-9.56196
0.0281046
-7.67758
0.0172069
-6.15842
0.00985378
-4.93499
0.00503965
-3.95158
0.00206045
-3.16271
0.000380397
-2.53105
-0.000463771
-2.02593
-0.000826181
-1.62261
-0.000895838
-1.30157
-0.000818162
-1.04648
-0.000686971
-0.84489
-0.000554609
-0.686183
-0.000454406
-0.562895
-0.000384943
-0.468246
-0.000320389
-0.398074
-0.00032625
-0.347923