/*--------------------------------*- C++ -*----------------------------------*\
| =========                 |                                                 |
| \\      /  F ield         | OpenFOAM: The Open Source CFD Toolbox           |
|  \\    /   O peration     | Version:  2406                                  |
|   \\  /    A nd           | Website:  www.openfoam.com                      |
|    \\/     M anipulation  |                                                 |
\*---------------------------------------------------------------------------*/
FoamFile
{
    version     2.0;
    format      ascii;
    arch        "LSB;label=32;scalar=64";
    class       volVectorField;
    location    "5";
    object      U;
}
// * * * * * * * * * * * * * * * * * * * * * * * * * * * * * * * * * * * * * //

dimensions      [0 1 -1 0 0 0 0];

internalField   nonuniform List<vector> 
38016
(
(51.3071 9.04632 4.84993e-25)
(51.3069 9.04922 1.18906e-25)
(51.3077 9.04897 -1.43613e-25)
(51.308 9.04898 0)
(51.3087 9.04881 0)
(51.3092 9.04859 0)
(51.3103 9.04821 -8.78338e-26)
(51.311 9.04769 -7.15761e-22)
(51.3124 9.0473 -6.16288e-26)
(51.3142 9.04612 7.43384e-26)
(51.3149 9.04525 9.39643e-22)
(51.3168 9.04433 4.15306e-27)
(51.3186 9.04235 6.89031e-22)
(51.3188 9.03965 5.04004e-23)
(51.3205 9.03626 4.95022e-22)
(51.3229 9.02972 0)
(51.3269 9.02046 0)
(51.336 9.0082 0)
(51.3524 8.98959 -6.96454e-24)
(51.3801 8.9624 7.99354e-24)
(51.4226 8.93476 -2.47495e-21)
(51.4867 8.87521 2.23387e-21)
(51.5834 8.81917 3.66476e-21)
(51.7131 8.74163 -5.23068e-23)
(51.8861 8.6497 1.95869e-20)
(52.1442 8.57713 -2.78351e-25)
(52.3771 8.51667 1.74734e-20)
(52.608 8.52646 -1.90028e-22)
(52.8008 8.54486 -2.87329e-25)
(52.9642 8.59898 0)
(53.0983 8.66993 -2.6066e-25)
(53.2112 8.75616 -3.48946e-22)
(53.3129 8.85114 1.45532e-20)
(53.4032 8.95285 0)
(53.4908 9.0606 0)
(53.576 9.17236 0)
(53.6603 9.28691 0)
(53.7461 9.39646 2.25559e-21)
(53.8216 9.49883 1.24611e-21)
(53.8921 9.59294 -1.16148e-22)
(53.9522 9.67245 -1.47276e-22)
(53.9989 9.7353 -2.95949e-21)
(54.0323 9.7792 5.35386e-22)
(54.0505 9.80104 -5.7385e-22)
(54.0534 9.80131 0)
(54.048 9.74155 0)
(53.9633 9.90851 1.63845e-21)
(54.0145 9.51569 -1.52077e-21)
(51.3072 9.04623 -2.7455e-20)
(51.307 9.04917 4.77786e-25)
(51.3078 9.04892 9.33876e-21)
(51.3081 9.04892 0)
(51.3088 9.04875 0)
(51.3093 9.04851 -3.04078e-21)
(51.3104 9.04811 5.26605e-27)
(51.3112 9.04756 7.16105e-22)
(51.3126 9.04712 -1.23859e-22)
(51.3145 9.04587 1.47031e-25)
(51.3153 9.04491 1.01812e-21)
(51.3175 9.04385 2.9768e-25)
(51.3195 9.04168 -6.88946e-22)
(51.32 9.03867 -5.06326e-23)
(51.3222 9.03487 -4.94946e-22)
(51.3254 9.02773 4.3591e-21)
(51.3301 9.01771 4.16009e-21)
(51.3406 9.00437 -9.93791e-24)
(51.3589 8.98428 -2.83791e-24)
(51.3894 8.95507 1.65403e-23)
(51.4362 8.92497 7.62523e-21)
(51.5121 8.86065 -6.80877e-21)
(51.6123 8.8015 -3.68715e-21)
(51.7826 8.71649 -1.38912e-20)
(51.9695 8.62034 1.95726e-20)
(52.2714 8.53983 9.35076e-23)
(52.5116 8.4761 -1.72982e-20)
(52.7584 8.48453 -5.40198e-20)
(52.9512 8.5039 3.88173e-20)
(53.109 8.56161 0)
(53.2337 8.63711 0)
(53.3355 8.7282 -2.29319e-20)
(53.4263 8.82723 -1.41266e-20)
(53.5063 8.93156 1.78733e-20)
(53.5851 9.03959 0)
(53.6626 9.14871 -1.31829e-20)
(53.7405 9.2569 0)
(53.8206 9.35591 -2.25351e-21)
(53.8919 9.44333 2.58324e-21)
(53.958 9.51768 -3.20184e-21)
(54.0136 9.5729 3.6121e-21)
(54.0551 9.60754 9.68356e-22)
(54.0816 9.61964 5.95645e-22)
(54.0906 9.60698 -6.48033e-22)
(54.0809 9.57054 0)
(54.0583 9.46763 0)
(53.9309 9.61483 1.30784e-21)
(53.9368 9.21553 -1.69674e-21)
(51.3072 9.04616 -2.55893e-22)
(51.307 9.04914 0)
(51.3078 9.04889 -1.87055e-20)
(51.3081 9.04889 0)
(51.3088 9.04871 0)
(51.3093 9.04847 3.04183e-21)
(51.3104 9.04805 -4.02373e-26)
(51.3111 9.04748 5.35688e-26)
(51.3125 9.04702 1.23896e-22)
(51.3144 9.04574 1.54823e-25)
(51.3151 9.04475 -1.95963e-21)
(51.3172 9.04363 -2.73193e-21)
(51.3191 9.04139 3.00838e-21)
(51.3195 9.03827 5.5015e-27)
(51.3214 9.03431 5.04811e-25)
(51.3242 9.0269 -4.35792e-21)
(51.3281 9.01647 -4.15939e-21)
(51.3376 9.00253 3.40754e-24)
(51.3545 8.9815 -1.18987e-23)
(51.3831 8.95085 0)
(51.4265 8.91894 -1.58364e-20)
(51.5014 8.85086 4.5757e-21)
(51.5882 8.78805 6.69895e-21)
(51.7547 8.6963 2.78539e-20)
(51.9138 8.59295 6.14281e-24)
(52.2184 8.50471 0)
(52.4508 8.43587 -7.10246e-20)
(52.7036 8.44318 5.36225e-20)
(52.9003 8.46327 -3.8547e-20)
(53.0646 8.52425 0)
(53.1972 8.60373 -1.14649e-21)
(53.3075 8.69856 -2.10342e-20)
(53.4075 8.80013 -3.64293e-21)
(53.497 8.9049 -1.33698e-20)
(53.5852 9.01047 1.96176e-20)
(53.6717 9.11368 1.31873e-20)
(53.7579 9.21174 0)
(53.8454 9.29656 9.62396e-21)
(53.9227 9.3653 -2.68347e-21)
(53.9929 9.41652 3.32478e-21)
(54.0505 9.44506 -7.15278e-21)
(54.091 9.45019 4.34508e-21)
(54.113 9.43103 -5.54309e-21)
(54.1134 9.38676 1.74032e-21)
(54.0903 9.31944 6.39321e-22)
(54.0469 9.18858 6.99874e-21)
(53.8888 9.32656 -7.0786e-23)
(53.8535 8.94779 3.14589e-21)
(51.3072 9.04609 8.36959e-20)
(51.307 9.04911 0)
(51.3078 9.04885 9.36518e-21)
(51.3081 9.04885 1.29708e-24)
(51.3088 9.04867 1.10118e-20)
(51.3093 9.04841 -1.68131e-25)
(51.3104 9.04799 -3.07118e-21)
(51.3111 9.0474 0)
(51.3125 9.04691 5.52204e-23)
(51.3144 9.0456 0)
(51.3151 9.04456 -4.23621e-21)
(51.3172 9.04337 2.73359e-21)
(51.319 9.04105 -3.00948e-21)
(51.3195 9.03779 -4.55502e-25)
(51.3212 9.03362 2.06089e-21)
(51.324 9.02589 9.04862e-21)
(51.3278 9.015 -1.19104e-23)
(51.3373 9.00037 1.4019e-23)
(51.3541 8.97831 0)
(51.3826 8.94611 -1.95474e-20)
(51.4255 8.91221 2.17825e-20)
(51.5023 8.84023 -9.52492e-21)
(51.5836 8.77392 -1.93256e-20)
(51.7556 8.67518 -1.41195e-20)
(51.909 8.56464 -3.90092e-20)
(52.2188 8.46721 -3.8334e-22)
(52.4463 8.39256 -3.06091e-22)
(52.7039 8.3974 1.11642e-19)
(52.9032 8.41752 -8.09978e-20)
(53.0716 8.48111 0)
(53.2087 8.56418 0)
(53.3241 8.66253 -9.57547e-22)
(53.4293 8.76664 3.02152e-20)
(53.5244 8.8721 0)
(53.6177 8.9757 -2.24234e-20)
(53.7088 9.07391 0)
(53.7987 9.16332 0)
(53.888 9.23619 -9.62449e-21)
(53.9661 9.28964 6.13425e-21)
(54.0342 9.3223 6.53678e-21)
(54.0865 9.33041 -7.97547e-21)
(54.1182 9.3142 -4.49498e-21)
(54.1267 9.27431 -9.37487e-21)
(54.109 9.21213 1.12213e-20)
(54.0625 9.13207 0)
(53.9894 9.00045 1.24976e-22)
(53.8116 9.15246 1.05269e-20)
(53.7491 8.80625 -1.04078e-20)
(51.3072 9.04601 -5.59895e-20)
(51.307 9.04908 -1.93487e-24)
(51.3078 9.04882 1.88255e-20)
(51.3081 9.04881 -1.00738e-20)
(51.3088 9.04862 -1.10157e-20)
(51.3093 9.04836 -5.78692e-21)
(51.3104 9.04792 -2.85504e-21)
(51.3111 9.04731 0)
(51.3125 9.04679 -5.52665e-23)
(51.3144 9.04544 3.15113e-26)
(51.3151 9.04436 4.23666e-21)
(51.3172 9.04309 6.75466e-25)
(51.319 9.04068 0)
(51.3194 9.03726 4.17357e-25)
(51.3211 9.03287 -2.06219e-21)
(51.3239 9.02478 -9.05216e-21)
(51.3275 9.01338 -9.12726e-21)
(51.3369 8.99798 1.84485e-20)
(51.3535 8.97477 0)
(51.3818 8.94086 3.97334e-20)
(51.424 8.90469 -1.10974e-20)
(51.503 8.8285 9.52575e-21)
(51.5788 8.75802 2.45431e-20)
(51.7568 8.65165 1.04661e-22)
(51.9029 8.53274 -1.04567e-22)
(52.2187 8.42518 -3.87587e-22)
(52.4414 8.34375 1.45627e-19)
(52.7035 8.34572 -1.12495e-19)
(52.9044 8.36571 -1.28911e-21)
(53.0751 8.43198 0)
(53.2145 8.51894 2.38619e-21)
(53.3323 8.62124 4.49003e-20)
(53.4397 8.72846 -3.02297e-20)
(53.5371 8.83526 0)
(53.6321 8.93769 0)
(53.7241 9.03206 2.85976e-20)
(53.8138 9.11446 -8.28218e-21)
(53.9005 9.17782 1.03097e-20)
(53.9746 9.21943 -1.5744e-22)
(54.0353 9.2384 -1.4572e-20)
(54.0769 9.23271 8.226e-21)
(54.0943 9.20393 9.21738e-21)
(54.0844 9.1547 1.98959e-20)
(54.0445 9.08922 -2.67887e-20)
(53.9737 9.01464 -2.32564e-20)
(53.8764 8.90298 2.67164e-20)
(53.6908 9.08314 1.60376e-21)
(53.6242 8.7704 1.488e-21)
(51.3072 9.04593 0)
(51.307 9.04905 0)
(51.3078 9.04878 -1.88288e-20)
(51.3081 9.04877 1.00761e-20)
(51.3088 9.04857 0)
(51.3093 9.0483 5.789e-21)
(51.3104 9.04785 5.9298e-21)
(51.3111 9.04722 -1.66725e-25)
(51.3125 9.04666 0)
(51.3144 9.04528 0)
(51.3151 9.04415 9.09808e-21)
(51.3171 9.0428 0)
(51.3189 9.04029 0)
(51.3193 9.0367 6.3082e-22)
(51.3209 9.03207 -4.28248e-21)
(51.3237 9.0236 9.41314e-21)
(51.3271 9.01165 9.11812e-21)
(51.3363 8.99542 -3.7389e-20)
(51.3526 8.97098 -2.5931e-23)
(51.3806 8.93524 -2.01453e-20)
(51.4219 8.89664 2.38297e-20)
(51.5022 8.816 0)
(51.5727 8.74098 -1.18955e-20)
(51.7542 8.62651 0)
(51.8932 8.49848 0)
(52.2123 8.37997 3.9169e-22)
(52.4302 8.29114 -2.19858e-19)
(52.695 8.28978 1.14896e-19)
(52.8969 8.30951 8.23566e-20)
(53.0694 8.37844 0)
(53.2108 8.4694 7.4501e-20)
(53.3309 8.57576 3.0361e-21)
(53.4404 8.68619 6.6873e-20)
(53.5401 8.79436 2.95329e-20)
(53.6365 8.8957 1.18787e-20)
(53.7289 8.98651 -6.5245e-20)
(53.8173 9.06248 8.52224e-21)
(53.9002 9.11754 -1.06086e-20)
(53.9684 9.14943 -1.25056e-20)
(54.0198 9.15815 2.10909e-20)
(54.0486 9.14368 -2.55091e-20)
(54.05 9.10922 -1.84118e-20)
(54.0212 9.05971 2.8261e-20)
(53.9611 9.00182 2.95724e-21)
(53.8725 8.94425 -2.51991e-20)
(53.7611 8.86114 2.71771e-20)
(53.581 9.07193 -1.61208e-21)
(53.5236 8.7894 -1.49595e-21)
(51.3072 9.04585 -8.30251e-24)
(51.307 9.04901 0)
(51.3078 9.04874 1.89273e-20)
(51.3081 9.04873 -2.60275e-24)
(51.3088 9.04853 1.21558e-24)
(51.3092 9.04824 -2.08801e-24)
(51.3104 9.04777 -5.49558e-21)
(51.3111 9.04712 3.73466e-21)
(51.3125 9.04653 0)
(51.3144 9.04511 8.3039e-21)
(51.315 9.04393 -9.10145e-21)
(51.3171 9.04249 -7.25825e-25)
(51.3188 9.03988 8.73062e-25)
(51.3193 9.03611 -6.31056e-22)
(51.3207 9.03122 4.28146e-21)
(51.3235 9.02234 -9.40713e-21)
(51.3266 9.00981 -7.62987e-24)
(51.3358 8.99271 1.89548e-20)
(51.3518 8.96697 2.66747e-23)
(51.3794 8.9293 0)
(51.4198 8.88807 -2.39252e-20)
(51.5015 8.80288 -2.0322e-20)
(51.5668 8.72287 0)
(51.7519 8.60007 0)
(51.884 8.46217 -4.13074e-22)
(52.2062 8.3323 5.13992e-22)
(52.4193 8.23543 1.46773e-19)
(52.6866 8.23045 -1.14936e-19)
(52.8893 8.24983 -1.39722e-21)
(53.0636 8.32137 3.63339e-21)
(53.207 8.41633 -8.17907e-20)
(53.3291 8.52667 1.01256e-19)
(53.4404 8.64016 -5.90433e-20)
(53.542 8.74945 -7.92299e-20)
(53.6391 8.84947 0)
(53.7308 8.93658 2.9317e-20)
(53.8167 9.00636 8.75966e-21)
(53.8941 9.0539 -3.26107e-20)
(53.9547 9.07775 2.54099e-20)
(53.9949 9.07915 -1.52197e-20)
(54.0097 9.06014 0)
(53.9949 9.02567 -4.94492e-21)
(53.949 8.98277 2.83406e-22)
(53.8746 8.93939 2.49507e-20)
(53.7752 8.90363 -6.029e-20)
(53.6627 8.85026 2.46832e-21)
(53.4955 9.08707 3.17215e-20)
(53.4562 8.82898 -3.89097e-21)
(51.3072 9.04576 1.16172e-19)
(51.307 9.04898 -3.30931e-20)
(51.3078 9.0487 1.90166e-20)
(51.3081 9.04868 2.01293e-20)
(51.3088 9.04847 1.81495e-25)
(51.3092 9.04818 1.4474e-24)
(51.3103 9.04769 1.07782e-20)
(51.3111 9.04702 -3.73604e-21)
(51.3125 9.0464 1.54266e-25)
(51.3143 9.04493 -8.30715e-21)
(51.315 9.0437 0)
(51.3171 9.04217 1.3131e-20)
(51.3187 9.03944 4.68978e-25)
(51.3192 9.03548 -5.63063e-25)
(51.3205 9.03031 2.68679e-24)
(51.3232 9.021 1.95987e-20)
(51.3262 9.00784 1.33671e-23)
(51.3351 8.9898 -1.57336e-23)
(51.3509 8.96268 0)
(51.3781 8.92295 0)
(51.4176 8.87892 0)
(51.5001 8.78899 2.03744e-20)
(51.5611 8.70368 -7.49569e-23)
(51.7484 8.57211 2.87898e-20)
(51.8749 8.42382 0)
(52.1987 8.28197 0)
(52.4082 8.17665 0)
(52.6771 8.16761 -1.17915e-19)
(52.8808 8.18653 1.72148e-19)
(53.0569 8.26058 -1.2317e-19)
(53.2023 8.35946 -6.97284e-20)
(53.3266 8.47364 -1.14092e-19)
(53.4396 8.58995 -5.73668e-20)
(53.5427 8.70012 4.00267e-20)
(53.6399 8.79862 0)
(53.7303 8.88205 0)
(53.8126 8.94611 1.91644e-20)
(53.8835 8.98725 2.18058e-20)
(53.9352 9.00514 -1.29064e-20)
(53.9637 9.00248 1.52324e-20)
(53.9648 8.98321 -3.53043e-20)
(53.9358 8.954 8.43732e-20)
(53.8779 8.92304 -5.585e-20)
(53.7952 8.89778 0)
(53.6957 8.88487 5.86346e-20)
(53.5896 8.85787 -6.73979e-20)
(53.4433 9.11389 -4.39015e-21)
(53.4258 8.87265 3.90116e-21)
(51.3072 9.04567 -2.33481e-19)
(51.307 9.04894 3.31174e-20)
(51.3078 9.04865 -3.79627e-20)
(51.308 9.04864 -2.01379e-20)
(51.3088 9.04842 0)
(51.3092 9.04812 5.85039e-25)
(51.3103 9.04761 4.84413e-21)
(51.3111 9.04692 0)
(51.3125 9.04626 3.27508e-21)
(51.3143 9.04475 0)
(51.3149 9.04345 -3.22084e-25)
(51.317 9.04183 -1.31355e-20)
(51.3187 9.03898 0)
(51.3191 9.03482 0)
(51.3203 9.02936 2.74306e-24)
(51.323 9.01958 -1.96194e-20)
(51.3257 9.00575 8.05932e-24)
(51.3345 8.98672 -4.11972e-20)
(51.35 8.95812 0)
(51.3769 8.91622 0)
(51.4154 8.86921 0)
(51.4989 8.7744 -2.4662e-24)
(51.5554 8.68332 2.63334e-24)
(51.7451 8.54278 -2.87209e-20)
(51.8658 8.3833 0)
(52.1912 8.2291 0)
(52.3968 8.11469 -1.4936e-19)
(52.6674 8.10127 2.35611e-19)
(52.8724 8.11961 2.29982e-21)
(53.0505 8.19606 1.19361e-19)
(53.198 8.29881 7.95825e-20)
(53.3246 8.4167 -1.04867e-19)
(53.4391 8.53567 6.54303e-20)
(53.5436 8.64657 0)
(53.6403 8.74357 0)
(53.7286 8.82358 -7.80793e-20)
(53.8063 8.88278 1.99504e-20)
(53.8698 8.91905 2.23112e-20)
(53.9118 8.93347 -2.73747e-20)
(53.9286 8.93016 -1.62668e-20)
(53.9174 8.91474 3.67637e-20)
(53.8773 8.89508 -4.51877e-20)
(53.8129 8.87914 0)
(53.7291 8.87274 0)
(53.6358 8.88016 1.23351e-20)
(53.5424 8.8744 0)
(53.4204 9.14132 9.20485e-21)
(53.4235 8.90919 0)
(51.3071 9.04557 1.17282e-19)
(51.307 9.0489 0)
(51.3078 9.04861 -3.81678e-20)
(51.308 9.04859 -2.01131e-20)
(51.3088 9.04837 -2.07533e-20)
(51.3092 9.04805 -1.13474e-24)
(51.3103 9.04753 -1.98216e-20)
(51.311 9.04681 -4.92647e-25)
(51.3124 9.04611 -3.27603e-21)
(51.3143 9.04455 -3.82827e-25)
(51.3149 9.0432 -2.06731e-20)
(51.317 9.04147 0)
(51.3186 9.03849 0)
(51.319 9.03411 0)
(51.3201 9.02834 -4.69886e-21)
(51.3228 9.01806 2.04144e-20)
(51.3253 9.00352 -2.12904e-20)
(51.3339 8.98342 4.12372e-20)
(51.349 8.95325 -2.8981e-23)
(51.3755 8.90905 0)
(51.413 8.85885 4.51986e-23)
(51.497 8.75896 -4.96634e-23)
(51.5499 8.66178 0)
(51.7406 8.51181 5.73263e-20)
(51.8568 8.34064 -4.18865e-22)
(52.1823 8.17343 5.21169e-22)
(52.3851 8.04951 1.50759e-19)
(52.6568 8.03121 1.32707e-21)
(52.863 8.04882 -1.7163e-19)
(53.0433 8.12754 -1.26473e-19)
(53.193 8.23406 -5.20561e-21)
(53.3218 8.35556 1.11386e-19)
(53.4377 8.47707 0)
(53.5431 8.58865 0)
(53.6386 8.68431 5.23898e-20)
(53.724 8.76147 6.27997e-20)
(53.7964 8.81693 -3.80626e-20)
(53.8519 8.8502 -2.34842e-20)
(53.8842 8.86381 -7.64801e-22)
(53.8904 8.8631 3.30857e-20)
(53.8692 8.85505 -3.82548e-20)
(53.8228 8.8477 2.06281e-21)
(53.7566 8.84756 4.10896e-20)
(53.6787 8.85827 7.91062e-21)
(53.594 8.88165 -8.41752e-21)
(53.519 8.89139 7.45308e-20)
(53.4169 9.16113 -1.65855e-19)
(53.4393 8.93295 8.29202e-20)
(51.3071 9.04547 -1.01678e-23)
(51.307 9.04886 -6.73574e-20)
(51.3077 9.04856 7.64533e-20)
(51.308 9.04854 2.01237e-20)
(51.3088 9.04831 2.07629e-20)
(51.3092 9.04798 1.38671e-24)
(51.3103 9.04744 9.69624e-21)
(51.311 9.0467 4.79527e-25)
(51.3124 9.04596 3.39119e-25)
(51.3143 9.04435 -4.09062e-25)
(51.3149 9.04293 -6.09544e-22)
(51.3169 9.04109 -2.581e-26)
(51.3185 9.03798 0)
(51.3189 9.03337 2.06859e-21)
(51.3199 9.02726 4.70012e-21)
(51.3226 9.01646 -2.0415e-20)
(51.3248 9.00115 2.129e-20)
(51.3333 8.97993 4.34309e-20)
(51.3481 8.9481 3.76837e-23)
(51.3742 8.90147 4.31907e-24)
(51.4108 8.84789 -6.98745e-24)
(51.4953 8.74277 2.24774e-20)
(51.5443 8.63902 7.37421e-24)
(51.7364 8.4794 -5.73415e-20)
(51.8476 8.29575 0)
(52.1735 8.11516 8.18131e-22)
(52.3732 7.98106 -1.01952e-21)
(52.6459 7.95754 1.25355e-19)
(52.8537 7.97425 -2.59664e-21)
(53.0363 8.0551 -1.64548e-21)
(53.1884 8.16532 -1.6654e-19)
(53.3195 8.29035 1.15026e-19)
(53.4366 8.41434 -8.47387e-21)
(53.5425 8.52668 9.69177e-20)
(53.6363 8.62137 -6.56815e-20)
(53.7181 8.69642 0)
(53.7846 8.74955 0)
(53.8318 8.78184 -2.46422e-20)
(53.8549 8.79718 2.9146e-20)
(53.852 8.80187 1.83329e-21)
(53.8239 8.80359 1.01818e-19)
(53.7754 8.80951 -4.89299e-20)
(53.7125 8.82402 1.3753e-20)
(53.6424 8.84849 -7.9286e-21)
(53.571 8.88364 -7.26554e-20)
(53.5109 8.90278 8.30525e-20)
(53.4277 9.1707 0)
(53.4671 8.94271 8.80178e-20)
(51.3071 9.04536 -2.4084e-19)
(51.307 9.04882 -6.81239e-20)
(51.3077 9.04851 -3.82853e-20)
(51.308 9.04849 4.02035e-20)
(51.3088 9.04825 -2.70142e-24)
(51.3092 9.04791 -2.03828e-20)
(51.3103 9.04735 0)
(51.311 9.04658 3.99673e-21)
(51.3124 9.0458 -5.13365e-21)
(51.3143 9.04414 -1.06827e-20)
(51.3148 9.04264 4.32081e-20)
(51.3169 9.0407 2.12776e-25)
(51.3184 9.03744 0)
(51.3188 9.03258 -4.30784e-21)
(51.3197 9.02611 9.85175e-21)
(51.3224 9.01475 2.1222e-20)
(51.3244 8.99863 -8.72557e-24)
(51.3326 8.97621 -4.34463e-20)
(51.3471 8.94261 0)
(51.3727 8.89342 4.90448e-23)
(51.4084 8.83625 -5.52278e-23)
(51.493 8.72568 -2.25329e-20)
(51.539 8.61505 -9.80819e-24)
(51.7311 8.44532 -2.03927e-22)
(51.8388 8.24871 7.55946e-20)
(52.1634 8.05407 1.64964e-19)
(52.3611 7.9094 -1.52028e-19)
(52.6342 7.8801 -4.90574e-19)
(52.8436 7.89572 -5.99212e-21)
(53.0287 7.97853 1.23859e-19)
(53.1832 8.09236 1.76746e-19)
(53.3166 8.22086 1.60405e-21)
(53.4347 8.34731 -1.39962e-19)
(53.5405 8.46063 -8.62874e-20)
(53.6323 8.55488 2.67053e-20)
(53.71 8.62878 -1.3272e-19)
(53.7702 8.68114 -3.96203e-20)
(53.8094 8.71451 4.82755e-20)
(53.8245 8.73383 -2.89882e-20)
(53.8148 8.74608 -5.0768e-20)
(53.7836 8.75877 1.47551e-19)
(53.7363 8.77741 -1.01685e-19)
(53.6805 8.80416 1.15947e-19)
(53.619 8.83887 -2.83179e-19)
(53.5623 8.88182 1.58931e-19)
(53.5138 8.90614 0)
(53.4507 9.16943 1.9668e-19)
(53.4993 8.93809 -1.99991e-19)
(51.3071 9.04525 2.40929e-19)
(51.307 9.04878 2.03727e-19)
(51.3077 9.04847 -3.85025e-20)
(51.308 9.04844 -8.03969e-20)
(51.3088 9.04819 0)
(51.3092 9.04784 2.03908e-20)
(51.3103 9.04726 0)
(51.311 9.04646 -3.99835e-21)
(51.3124 9.04564 5.13496e-21)
(51.3142 9.04392 1.06878e-20)
(51.3148 9.04235 -4.44497e-20)
(51.3169 9.04028 -1.53486e-20)
(51.3183 9.03687 1.67616e-20)
(51.3188 9.03175 2.23974e-21)
(51.3195 9.0249 -9.85245e-21)
(51.3222 9.01295 -2.12259e-20)
(51.3239 8.99597 0)
(51.332 8.97227 0)
(51.3462 8.93682 -3.97835e-23)
(51.3714 8.88492 -5.10883e-20)
(51.4061 8.82397 6.03379e-20)
(51.4911 8.70781 0)
(51.5337 8.58982 0)
(51.7263 8.40978 0)
(51.8298 8.19944 -1.49446e-19)
(52.1535 7.99041 -3.35325e-19)
(52.3487 7.83451 1.5413e-19)
(52.6225 7.79905 2.46567e-19)
(52.8338 7.81336 0)
(53.0214 7.89796 0)
(53.1787 8.01532 1.08829e-20)
(53.3143 8.14727 -1.23464e-19)
(53.4332 8.27625 1.39983e-19)
(53.5387 8.39091 -2.20473e-20)
(53.6279 8.4854 8.28506e-20)
(53.7011 8.55926 6.67809e-20)
(53.755 8.61248 -8.37878e-22)
(53.787 8.64883 4.93587e-20)
(53.7955 8.67394 0)
(53.7812 8.69502 -1.44116e-19)
(53.7499 8.71866 1.10608e-19)
(53.7068 8.74829 0)
(53.6586 8.78434 0)
(53.6077 8.82615 8.79374e-21)
(53.5613 8.8731 0)
(53.5259 8.90019 1.18658e-20)
(53.4741 9.15523 -1.20374e-20)
(53.5286 8.91989 6.19856e-21)
(51.3071 9.04514 -2.45079e-19)
(51.307 9.04874 3.66857e-22)
(51.3077 9.04841 -3.86992e-20)
(51.308 9.04838 8.03749e-20)
(51.3088 9.04813 -1.99366e-20)
(51.3092 9.04776 -2.65168e-24)
(51.3103 9.04716 0)
(51.311 9.04633 -2.66287e-25)
(51.3124 9.04547 3.21346e-25)
(51.3142 9.04369 0)
(51.3148 9.04204 -6.17506e-22)
(51.3168 9.03985 1.53548e-20)
(51.3183 9.03627 -1.6768e-20)
(51.3187 9.03087 5.22346e-21)
(51.3193 9.02362 0)
(51.322 9.01104 0)
(51.3235 8.99315 0)
(51.3314 8.9681 0)
(51.3452 8.93068 4.08192e-23)
(51.37 8.87594 5.11025e-20)
(51.4038 8.81098 -1.22467e-19)
(51.4886 8.689 -1.37737e-23)
(51.5287 8.56338 1.4708e-23)
(51.7206 8.37257 5.60758e-20)
(51.8212 8.14808 7.48995e-20)
(52.1425 7.92401 3.36174e-19)
(52.3364 7.75651 -2.82403e-21)
(52.61 7.71431 3.51726e-21)
(52.8233 7.72706 -1.85093e-19)
(53.0138 7.81326 0)
(53.1737 7.93405 0)
(53.3116 8.06946 1.27174e-19)
(53.4311 8.20114 -1.77319e-20)
(53.5358 8.31757 2.24161e-20)
(53.6223 8.41313 -1.95874e-19)
(53.6909 8.48816 6.93053e-20)
(53.7389 8.54385 4.15783e-20)
(53.7647 8.58481 -5.03603e-20)
(53.7683 8.61705 1.55103e-19)
(53.7524 8.64743 7.27848e-20)
(53.7231 8.68105 -2.45935e-20)
(53.6863 8.71949 -2.4363e-19)
(53.6448 8.76206 1.30017e-19)
(53.604 8.80819 -1.68759e-19)
(53.5651 8.85653 1.75687e-19)
(53.5391 8.88408 1.69127e-19)
(53.4939 9.12994 -2.12791e-19)
(53.5505 8.89154 0)
(51.3071 9.04502 4.92351e-19)
(51.307 9.04869 -1.37479e-19)
(51.3077 9.04836 7.72203e-20)
(51.308 9.04833 -3.34324e-23)
(51.3087 9.04806 1.99447e-20)
(51.3092 9.04768 2.61154e-24)
(51.3103 9.04706 0)
(51.311 9.0462 1.83949e-21)
(51.3123 9.04529 -1.70843e-24)
(51.3142 9.04344 2.06077e-24)
(51.3147 9.04171 2.31682e-20)
(51.3168 9.03939 -1.39188e-24)
(51.3182 9.03564 1.77298e-20)
(51.3187 9.02995 4.1744e-22)
(51.3192 9.02228 1.04479e-20)
(51.3218 9.00904 7.90445e-24)
(51.3231 8.99018 -9.3761e-24)
(51.3308 8.9637 0)
(51.3443 8.92421 4.18324e-23)
(51.3688 8.8665 5.36981e-24)
(51.4016 8.79734 6.20684e-20)
(51.4865 8.66941 0)
(51.5238 8.53568 6.71432e-21)
(51.7154 8.33394 -1.11288e-19)
(51.8125 8.0946 -3.98659e-22)
(52.1319 7.85517 -1.68561e-19)
(52.3238 7.67546 1.56882e-19)
(52.5977 7.62608 -4.34408e-21)
(52.8133 7.63702 9.7868e-21)
(53.0067 7.7246 -7.73873e-21)
(53.1696 7.84876 -1.11757e-20)
(53.3097 7.98769 -2.13501e-19)
(53.4298 8.12231 1.46229e-19)
(53.5334 8.24108 2.27773e-20)
(53.617 8.33863 8.41443e-20)
(53.681 8.41611 -1.399e-19)
(53.7236 8.47572 -4.32599e-20)
(53.7445 8.52256 0)
(53.745 8.56266 7.64781e-22)
(53.7293 8.60205 -3.80085e-20)
(53.7038 8.64419 0)
(53.6723 8.68924 2.75344e-20)
(53.6382 8.73642 -1.70351e-20)
(53.6032 8.78486 1.92965e-20)
(53.571 8.83372 0)
(53.5495 8.86086 1.25073e-20)
(53.5069 9.09847 0)
(53.5662 8.85873 0)
(51.3071 9.04489 -2.47295e-19)
(51.307 9.04864 1.38312e-19)
(51.3077 9.04831 -7.76593e-20)
(51.308 9.04827 4.00994e-20)
(51.3087 9.048 0)
(51.3092 9.0476 0)
(51.3103 9.04696 1.41454e-20)
(51.311 9.04606 -1.84024e-21)
(51.3123 9.0451 0)
(51.3142 9.04319 2.03219e-24)
(51.3147 9.04137 -2.4498e-24)
(51.3168 9.03891 3.3492e-20)
(51.3181 9.03497 -1.77371e-20)
(51.3186 9.02898 -5.64492e-21)
(51.319 9.02086 1.37935e-22)
(51.3216 9.00692 0)
(51.3227 8.98705 0)
(51.3303 8.95906 2.88423e-23)
(51.3435 8.9174 -3.35844e-23)
(51.3675 8.85656 -1.10152e-19)
(51.3994 8.78299 6.16474e-23)
(51.484 8.64888 0)
(51.5193 8.5068 -1.16655e-20)
(51.7095 8.29372 5.54892e-20)
(51.8045 8.03918 0)
(52.1204 7.78382 0)
(52.3115 7.59155 -1.59801e-19)
(52.5848 7.53441 2.58824e-19)
(52.8029 7.54322 1.87029e-19)
(52.9995 7.63195 0)
(53.1654 7.75939 0)
(53.3077 7.90193 -1.42725e-21)
(53.4282 8.03983 -1.83243e-19)
(53.5306 8.16156 4.61815e-20)
(53.6113 8.26208 -1.16221e-19)
(53.6711 8.34324 -1.19874e-21)
(53.7092 8.40804 1.29772e-19)
(53.7266 8.46168 -5.3893e-20)
(53.726 8.50986 9.66437e-20)
(53.7118 8.55753 -3.57189e-19)
(53.691 8.60667 1.94191e-19)
(53.6641 8.65675 0)
(53.6357 8.70733 1.70542e-20)
(53.6048 8.75758 0)
(53.5774 8.80703 -4.02922e-19)
(53.5565 8.83456 4.32124e-19)
(53.5231 9.06616 0)
(53.5803 8.82456 0)
(51.3071 9.04477 0)
(51.307 9.0486 -6.9365e-20)
(51.3077 9.04825 -1.9637e-22)
(51.308 9.04821 -8.03053e-20)
(51.3087 9.04793 -3.86787e-20)
(51.3091 9.04751 1.83824e-20)
(51.3102 9.04685 -1.41513e-20)
(51.311 9.04592 8.66216e-25)
(51.3123 9.04491 -1.6613e-20)
(51.3141 9.04293 2.62274e-20)
(51.3147 9.04102 -7.32875e-25)
(51.3168 9.03842 -3.35009e-20)
(51.3181 9.03428 -6.80145e-25)
(51.3186 9.02796 -6.62353e-21)
(51.3189 9.01937 -1.05928e-20)
(51.3215 9.0047 -4.58652e-20)
(51.3224 8.98376 4.88291e-24)
(51.3298 8.95419 0)
(51.3427 8.91025 0)
(51.3664 8.84617 1.10179e-19)
(51.3975 8.76799 -6.31113e-23)
(51.4819 8.62759 -4.07334e-23)
(51.5149 8.47674 5.11231e-21)
(51.7044 8.25219 5.45525e-20)
(51.7965 7.98187 -8.4734e-22)
(52.1094 7.71031 1.05439e-21)
(52.2991 7.50494 1.5848e-19)
(52.5723 7.43956 -2.46498e-19)
(52.7931 7.44594 -1.10259e-20)
(52.9931 7.53557 -1.16141e-19)
(53.1623 7.66623 -2.01153e-19)
(53.3068 7.81254 1.45496e-19)
(53.4278 7.9541 -3.69132e-20)
(53.5289 8.07948 -4.69592e-20)
(53.6069 8.18398 1.74924e-19)
(53.663 8.26996 1.43718e-19)
(53.6976 8.34091 -9.13993e-20)
(53.7127 8.40185 -2.19397e-19)
(53.7119 8.45793 0)
(53.7007 8.513 4.02174e-20)
(53.6835 8.5678 -2.2173e-19)
(53.6609 8.622 2.11352e-19)
(53.6361 8.67534 3.04539e-19)
(53.6082 8.72745 -3.43434e-19)
(53.5827 8.77769 2.42961e-20)
(53.562 8.80637 0)
(53.53 9.03185 -1.55382e-20)
(53.5854 8.78906 -5.23648e-19)
(51.3071 9.04463 0)
(51.307 9.04855 0)
(51.3077 9.0482 7.79031e-20)
(51.308 9.04815 4.01073e-20)
(51.3087 9.04786 3.86962e-20)
(51.3091 9.04743 -4.13695e-22)
(51.3102 9.04674 0)
(51.3109 9.04577 0)
(51.3123 9.04471 1.66169e-20)
(51.3141 9.04265 9.90411e-22)
(51.3147 9.04065 5.14942e-20)
(51.3167 9.03789 4.03487e-24)
(51.3181 9.03355 1.93419e-20)
(51.3186 9.0269 -5.83249e-22)
(51.3188 9.01782 0)
(51.3214 9.00237 -4.28311e-22)
(51.3221 8.98031 7.31786e-24)
(51.3294 8.94909 -1.0074e-23)
(51.342 8.90277 -4.46244e-23)
(51.3653 8.83529 1.08473e-22)
(51.3957 8.75229 -6.44775e-23)
(51.4796 8.6054 5.3599e-20)
(51.5111 8.44557 2.01714e-21)
(51.6987 8.20923 -1.44617e-22)
(51.7894 7.92289 7.1859e-20)
(52.0979 7.63465 1.71159e-19)
(52.2872 7.4159 6.48093e-21)
(52.5596 7.34169 1.22265e-19)
(52.7833 7.34525 0)
(52.9869 7.43551 2.68275e-19)
(53.1594 7.56932 1.56416e-19)
(53.3063 7.71958 2.89189e-20)
(53.4278 7.86522 -1.52039e-19)
(53.5276 7.99498 4.76446e-20)
(53.6032 8.10442 6.0291e-20)
(53.6563 8.19624 1.47428e-19)
(53.6886 8.27406 8.86959e-20)
(53.7026 8.34255 -5.71776e-20)
(53.7033 8.40619 -1.35652e-19)
(53.6947 8.46769 3.34709e-19)
(53.6812 8.52744 -1.80418e-19)
(53.6615 8.58526 -2.15647e-19)
(53.6395 8.64143 2.43552e-19)
(53.6121 8.69573 3.52018e-19)
(53.5878 8.74756 -4.39646e-19)
(53.5644 8.77801 -1.48057e-20)
(53.534 8.99889 1.55512e-20)
(53.5857 8.75571 5.45157e-19)
(51.3071 9.0445 -2.55739e-19)
(51.3071 9.0485 4.25406e-23)
(51.3077 9.04814 -1.98229e-23)
(51.308 9.04809 -1.20269e-19)
(51.3087 9.04778 3.78935e-20)
(51.3091 9.04734 -1.79775e-20)
(51.3102 9.04662 -1.41416e-24)
(51.3109 9.04561 -1.76178e-24)
(51.3123 9.0445 1.32062e-24)
(51.3141 9.04237 1.00438e-21)
(51.3146 9.04026 -1.04379e-19)
(51.3167 9.03735 -4.16702e-24)
(51.318 9.03279 -5.92364e-20)
(51.3186 9.02579 -6.64455e-22)
(51.3188 9.01619 2.73782e-24)
(51.3214 8.99995 9.29243e-20)
(51.3219 8.97672 -5.28467e-20)
(51.3291 8.94377 0)
(51.3415 8.89496 -2.27114e-23)
(51.3644 8.82397 2.60622e-23)
(51.3943 8.73597 -6.96983e-20)
(51.4779 8.5825 9.36837e-22)
(51.5077 8.41332 -2.04143e-21)
(51.6938 8.16514 -5.40463e-20)
(51.7826 7.86234 -1.44067e-19)
(52.0871 7.55727 -2.53642e-19)
(52.2755 7.32468 -3.23459e-19)
(52.5474 7.24115 -2.59911e-19)
(52.7744 7.24152 -1.29069e-20)
(52.9818 7.33215 -1.18723e-19)
(53.158 7.46905 2.34238e-20)
(53.3074 7.62343 -5.95271e-20)
(53.4296 7.77365 1.51415e-19)
(53.5283 7.90851 4.80782e-20)
(53.602 8.0238 -1.19875e-19)
(53.6529 8.12226 1.16788e-21)
(53.6838 8.20739 0)
(53.6977 8.28342 5.75328e-20)
(53.7001 8.35411 0)
(53.6943 8.42141 1.70587e-19)
(53.6837 8.4856 -2.51715e-21)
(53.6658 8.54701 -4.78118e-19)
(53.6453 8.60636 3.07922e-19)
(53.6172 8.66377 3.64152e-19)
(53.594 8.71843 2.29157e-20)
(53.5661 8.75226 -4.69528e-19)
(53.5369 8.97088 0)
(53.5844 8.72913 -5.49239e-19)
(51.3071 9.04435 5.13587e-19)
(51.3071 9.04844 0)
(51.3077 9.04808 -7.85786e-20)
(51.308 9.04802 1.20248e-19)
(51.3087 9.04771 -3.79101e-20)
(51.3091 9.04724 1.71514e-20)
(51.3102 9.0465 1.87919e-24)
(51.3109 9.04545 1.915e-21)
(51.3123 9.04428 -2.86875e-24)
(51.3141 9.04207 -2.82447e-20)
(51.3146 9.03986 5.28764e-20)
(51.3167 9.03678 0)
(51.318 9.032 3.99034e-20)
(51.3187 9.02464 7.88341e-21)
(51.3188 9.0145 2.10938e-20)
(51.3214 8.99742 -9.33715e-20)
(51.3218 8.97297 -7.06847e-22)
(51.3289 8.93821 -1.9339e-24)
(51.341 8.88683 1.37833e-23)
(51.3637 8.81219 1.18396e-19)
(51.393 8.71899 1.40427e-19)
(51.4759 8.55879 -5.45045e-20)
(51.5049 8.38011 4.20602e-22)
(51.6887 8.11986 5.35251e-20)
(51.7768 7.80053 7.14378e-20)
(52.076 7.47828 -1.91209e-22)
(52.2643 7.23166 1.59995e-19)
(52.5354 7.13821 1.21365e-19)
(52.7658 7.13495 1.12877e-20)
(52.9773 7.22563 1.78562e-20)
(53.1573 7.36553 -2.22794e-20)
(53.3094 7.52424 0)
(53.4325 7.67954 1.94694e-19)
(53.5305 7.82019 -1.47175e-19)
(53.6029 7.94211 0)
(53.6526 8.04784 -7.55515e-20)
(53.683 8.14054 9.36617e-20)
(53.6979 8.224 -1.15819e-19)
(53.7022 8.30131 0)
(53.6992 8.37398 1.75051e-19)
(53.6902 8.4424 -2.71248e-19)
(53.6735 8.50763 8.77471e-22)
(53.6537 8.57053 3.90357e-20)
(53.6242 8.63156 0)
(53.6011 8.68968 4.38457e-19)
(53.569 8.72755 -5.00282e-19)
(53.5396 8.94521 5.43432e-19)
(53.5836 8.70574 -5.70297e-19)
(51.307 9.0442 -2.5791e-19)
(51.3071 9.04839 0)
(51.3077 9.04801 1.5743e-19)
(51.308 9.04796 -1.20149e-19)
(51.3087 9.04763 0)
(51.3091 9.04714 -4.20578e-22)
(51.3102 9.04637 -9.69647e-21)
(51.3109 9.04529 -4.61712e-21)
(51.3122 9.04405 -1.31388e-24)
(51.3141 9.04177 3.03238e-20)
(51.3146 9.03944 1.13759e-23)
(51.3168 9.03619 8.8652e-24)
(51.3181 9.03117 -1.06624e-23)
(51.3188 9.02344 0)
(51.3188 9.01274 -2.11126e-20)
(51.3215 8.99481 4.67736e-20)
(51.3218 8.96909 5.35619e-20)
(51.3288 8.93246 2.10251e-23)
(51.3409 8.87841 8.64354e-20)
(51.3633 8.80001 -2.38149e-19)
(51.3922 8.70145 -7.07303e-20)
(51.4748 8.53446 -3.23915e-23)
(51.5026 8.346 -5.48284e-22)
(51.6846 8.07371 -5.30534e-20)
(51.7716 7.73761 -1.69511e-21)
(52.0659 7.39817 1.92869e-21)
(52.2538 7.13718 0)
(52.5242 7.03332 0)
(52.7584 7.026 1.83704e-19)
(52.9743 7.11641 1.36834e-19)
(53.1586 7.25921 -1.42911e-21)
(53.3136 7.42247 -1.12605e-21)
(53.438 7.58332 4.04285e-20)
(53.5358 7.7304 -1.20541e-21)
(53.6075 7.85963 0)
(53.6568 7.97304 7.70568e-20)
(53.6875 8.07337 -2.88489e-19)
(53.7034 8.16403 6.04185e-20)
(53.7103 8.24765 0)
(53.7087 8.32541 -1.79442e-19)
(53.7013 8.39833 5.65541e-22)
(53.6842 8.4678 2.3751e-19)
(53.6652 8.53504 -4.12645e-20)
(53.633 8.60042 2.45934e-20)
(53.6104 8.66287 -2.87131e-20)
(53.5747 8.70553 3.2586e-20)
(53.5437 8.92243 0)
(53.5859 8.68448 1.86144e-20)
(51.307 9.04405 2.20839e-23)
(51.3071 9.04833 -4.33298e-23)
(51.3077 9.04795 -7.88324e-20)
(51.308 9.04789 8.01099e-20)
(51.3087 9.04755 0)
(51.3091 9.04704 -4.9395e-20)
(51.3102 9.04624 9.70083e-21)
(51.3109 9.04512 -7.95292e-22)
(51.3122 9.04382 8.20852e-24)
(51.3141 9.04145 -3.03454e-20)
(51.3146 9.039 -7.50039e-24)
(51.3168 9.03558 -3.99571e-20)
(51.3181 9.03032 -4.41415e-20)
(51.3189 9.0222 1.05295e-20)
(51.3189 9.01093 1.98701e-20)
(51.3217 8.9921 4.64401e-20)
(51.3219 8.96508 1.53448e-23)
(51.3289 8.92651 -4.23968e-23)
(51.3408 8.86969 -8.63965e-20)