/*--------------------------------*- C++ -*----------------------------------*\
  =========                 |
  \\      /  F ield         | OpenFOAM: The Open Source CFD Toolbox
   \\    /   O peration     | Website:  https://openfoam.org
    \\  /    A nd           | Version:  10
     \\/     M anipulation  |
\*---------------------------------------------------------------------------*/
FoamFile
{
    format      ascii;
    class       volScalarField;
    location    "5";
    object      nut;
}
// * * * * * * * * * * * * * * * * * * * * * * * * * * * * * * * * * * * * * //

dimensions      [0 2 -1 0 0 0 0];

internalField   nonuniform List<scalar> 
38016
(
3.30005e-06
3.30033e-06
3.30058e-06
3.30076e-06
3.30092e-06
3.30111e-06
3.30135e-06
3.30166e-06
3.30207e-06
3.30258e-06
3.30321e-06
3.30399e-06
3.30491e-06
3.306e-06
3.30731e-06
3.30896e-06
3.31103e-06
3.31361e-06
3.31684e-06
3.3209e-06
3.32608e-06
3.33284e-06
3.3419e-06
3.35438e-06
3.37262e-06
3.39858e-06
3.43459e-06
3.48305e-06
3.54543e-06
3.62199e-06
3.71329e-06
3.82047e-06
3.94451e-06
4.08645e-06
4.25038e-06
4.43948e-06
4.65494e-06
4.91163e-06
5.23323e-06
5.64132e-06
6.1357e-06
6.68128e-06
7.22263e-06
7.77637e-06
8.66337e-06
1.09509e-05
1.76661e-05
3.83565e-05
3.30005e-06
3.30033e-06
3.30058e-06
3.30076e-06
3.30092e-06
3.30111e-06
3.30135e-06
3.30166e-06
3.30207e-06
3.30258e-06
3.30321e-06
3.30398e-06
3.30491e-06
3.306e-06
3.30731e-06
3.30896e-06
3.31102e-06
3.3136e-06
3.31683e-06
3.32088e-06
3.32605e-06
3.33278e-06
3.34179e-06
3.35419e-06
3.37229e-06
3.39806e-06
3.43377e-06
3.48185e-06
3.54376e-06
3.61976e-06
3.71041e-06
3.81682e-06
3.93996e-06
4.08082e-06
4.24346e-06
4.43102e-06
4.64456e-06
4.89873e-06
5.21697e-06
5.62084e-06
6.1105e-06
6.65151e-06
7.18757e-06
7.72686e-06
8.56335e-06
1.06946e-05
1.69449e-05
3.61234e-05
3.30005e-06
3.30033e-06
3.30058e-06
3.30076e-06
3.30092e-06
3.30111e-06
3.30135e-06
3.30166e-06
3.30207e-06
3.30258e-06
3.30321e-06
3.30398e-06
3.30491e-06
3.306e-06
3.3073e-06
3.30896e-06
3.31102e-06
3.3136e-06
3.31682e-06
3.32087e-06
3.32603e-06
3.33275e-06
3.34172e-06
3.35408e-06
3.37209e-06
3.39767e-06
3.43312e-06
3.48083e-06
3.54226e-06
3.61766e-06
3.70759e-06
3.81312e-06
3.93522e-06
4.07483e-06
4.23596e-06
4.42174e-06
4.63306e-06
4.88436e-06
5.19884e-06
5.59799e-06
6.08241e-06
6.61838e-06
7.14887e-06
7.67375e-06
8.46029e-06
1.04378e-05
1.62389e-05
3.39763e-05
3.30005e-06
3.30033e-06
3.30058e-06
3.30076e-06
3.30092e-06
3.30111e-06
3.30135e-06
3.30166e-06
3.30207e-06
3.30258e-06
3.30321e-06
3.30398e-06
3.30491e-06
3.306e-06
3.3073e-06
3.30896e-06
3.31102e-06
3.3136e-06
3.31681e-06
3.32086e-06
3.32601e-06
3.33271e-06
3.34166e-06
3.35397e-06
3.37188e-06
3.39729e-06
3.43247e-06
3.47982e-06
3.54078e-06
3.61558e-06
3.70478e-06
3.80943e-06
3.93048e-06
4.06883e-06
4.22843e-06
4.41238e-06
4.6214e-06
4.86966e-06
5.18006e-06
5.57409e-06
6.05287e-06
6.58362e-06
7.10853e-06
7.61811e-06
8.34939e-06
1.01562e-05
1.54658e-05
3.16705e-05
3.30005e-06
3.30033e-06
3.30058e-06
3.30075e-06
3.30092e-06
3.30111e-06
3.30135e-06
3.30166e-06
3.30207e-06
3.30258e-06
3.30321e-06
3.30398e-06
3.30491e-06
3.306e-06
3.3073e-06
3.30895e-06
3.31102e-06
3.31359e-06
3.31681e-06
3.32085e-06
3.32598e-06
3.33267e-06
3.3416e-06
3.35386e-06
3.37168e-06
3.39692e-06
3.43185e-06
3.47884e-06
3.53933e-06
3.61356e-06
3.70204e-06
3.80584e-06
3.92585e-06
4.06294e-06
4.22101e-06
4.40312e-06
4.60979e-06
4.85485e-06
5.16091e-06
5.54947e-06
6.02227e-06
6.54769e-06
7.06725e-06
7.56152e-06
8.23532e-06
9.86353e-06
1.46654e-05
2.93299e-05
3.30005e-06
3.30033e-06
3.30058e-06
3.30075e-06
3.30092e-06
3.30111e-06
3.30135e-06
3.30166e-06
3.30207e-06
3.30258e-06
3.30321e-06
3.30398e-06
3.30491e-06
3.30599e-06
3.3073e-06
3.30895e-06
3.31102e-06
3.31359e-06
3.3168e-06
3.32083e-06
3.32596e-06
3.33264e-06
3.34153e-06
3.35374e-06
3.37147e-06
3.39655e-06
3.43121e-06
3.47785e-06
3.53787e-06
3.61151e-06
3.69928e-06
3.80219e-06
3.92115e-06
4.05694e-06
4.21343e-06
4.39365e-06
4.59786e-06
4.83956e-06
5.14103e-06
5.52379e-06
5.99029e-06
6.51024e-06
7.02477e-06
7.50474e-06
8.1229e-06
9.57643e-06
1.38868e-05
2.7099e-05
3.30005e-06
3.30033e-06
3.30058e-06
3.30075e-06
3.30092e-06
3.30111e-06
3.30135e-06
3.30166e-06
3.30207e-06
3.30258e-06
3.30321e-06
3.30398e-06
3.3049e-06
3.30599e-06
3.3073e-06
3.30895e-06
3.31102e-06
3.31359e-06
3.31679e-06
3.32082e-06
3.32594e-06
3.33259e-06
3.34146e-06
3.35362e-06
3.37126e-06
3.39615e-06
3.43055e-06
3.47681e-06
3.53634e-06
3.60936e-06
3.69637e-06
3.79837e-06
3.91622e-06
4.05065e-06
4.20548e-06
4.38372e-06
4.58538e-06
4.8236e-06
5.12032e-06
5.49709e-06
5.95715e-06
6.4716e-06
6.98159e-06
7.44921e-06
8.0176e-06
9.31261e-06
1.31811e-05
2.51186e-05
3.30005e-06
3.30033e-06
3.30058e-06
3.30075e-06
3.30092e-06
3.30111e-06
3.30135e-06
3.30166e-06
3.30206e-06
3.30257e-06
3.30321e-06
3.30398e-06
3.3049e-06
3.30599e-06
3.3073e-06
3.30895e-06
3.31101e-06
3.31358e-06
3.31678e-06
3.3208e-06
3.32591e-06
3.33255e-06
3.34138e-06
3.35349e-06
3.37102e-06
3.39573e-06
3.42984e-06
3.4757e-06
3.5347e-06
3.60708e-06
3.69328e-06
3.79431e-06
3.91098e-06
4.04398e-06
4.19708e-06
4.37326e-06
4.57227e-06
4.80691e-06
5.09875e-06
5.46944e-06
5.92299e-06
6.432e-06
6.93795e-06
7.39532e-06
7.92052e-06
9.07514e-06
1.25549e-05
2.33957e-05
3.30005e-06
3.30033e-06
3.30058e-06
3.30075e-06
3.30092e-06
3.30111e-06
3.30135e-06
3.30166e-06
3.30206e-06
3.30257e-06
3.30321e-06
3.30398e-06
3.3049e-06
3.30599e-06
3.3073e-06
3.30895e-06
3.31101e-06
3.31358e-06
3.31678e-06
3.32079e-06
3.32588e-06
3.3325e-06
3.3413e-06
3.35335e-06
3.37078e-06
3.39528e-06
3.42908e-06
3.47451e-06
3.53296e-06
3.60464e-06
3.69e-06
3.78999e-06
3.90544e-06
4.03694e-06
4.18822e-06
4.36226e-06
4.55856e-06
4.78954e-06
5.07646e-06
5.44104e-06
5.88811e-06
6.39182e-06
6.89425e-06
7.34338e-06
7.83188e-06
8.86397e-06
1.2005e-05
2.19104e-05
3.30005e-06
3.30033e-06
3.30058e-06
3.30075e-06
3.30092e-06
3.30111e-06
3.30135e-06
3.30166e-06
3.30206e-06
3.30257e-06
3.30321e-06
3.30398e-06
3.3049e-06
3.30599e-06
3.3073e-06
3.30895e-06
3.31101e-06
3.31357e-06
3.31677e-06
3.32077e-06
3.32585e-06
3.33245e-06
3.34122e-06
3.3532e-06
3.37051e-06
3.3948e-06
3.42827e-06
3.47326e-06
3.53112e-06
3.60206e-06
3.68652e-06
3.78543e-06
3.89957e-06
4.02951e-06
4.17891e-06
4.35076e-06
4.54429e-06
4.77159e-06
5.0536e-06
5.41213e-06
5.85287e-06
6.35147e-06
6.85088e-06
7.29362e-06
7.75145e-06
8.67756e-06
1.15247e-05
2.06338e-05
3.30005e-06
3.30033e-06
3.30058e-06
3.30075e-06
3.30092e-06
3.30111e-06
3.30135e-06
3.30166e-06
3.30206e-06
3.30257e-06
3.30321e-06
3.30398e-06
3.3049e-06
3.30599e-06
3.3073e-06
3.30895e-06
3.31101e-06
3.31357e-06
3.31675e-06
3.32075e-06
3.32582e-06
3.3324e-06
3.34112e-06
3.35304e-06
3.37023e-06
3.39429e-06
3.42741e-06
3.47192e-06
3.52916e-06
3.59932e-06
3.68283e-06
3.78061e-06
3.8934e-06
4.02171e-06
4.16918e-06
4.33879e-06
4.52954e-06
4.75318e-06
5.03033e-06
5.38297e-06
5.81757e-06
6.31133e-06
6.80819e-06
7.24615e-06
7.67873e-06
8.51376e-06
1.11062e-05
1.95369e-05
3.30005e-06
3.30032e-06
3.30058e-06
3.30075e-06
3.30092e-06
3.30111e-06
3.30135e-06
3.30166e-06
3.30206e-06
3.30257e-06
3.3032e-06
3.30397e-06
3.3049e-06
3.30599e-06
3.3073e-06
3.30895e-06
3.311e-06
3.31356e-06
3.31674e-06
3.32073e-06
3.32579e-06
3.33234e-06
3.34102e-06
3.35287e-06
3.36993e-06
3.39375e-06
3.42651e-06
3.4705e-06
3.52708e-06
3.59643e-06
3.67895e-06
3.77553e-06
3.88693e-06
4.01356e-06
4.15904e-06
4.32641e-06
4.51438e-06
4.7344e-06
5.00683e-06
5.35378e-06
5.78253e-06
6.27174e-06
6.7665e-06
7.20106e-06
7.61307e-06
8.3701e-06
1.07413e-05
1.8592e-05
3.30004e-06
3.30032e-06
3.30058e-06
3.30075e-06
3.30092e-06
3.30111e-06
3.30135e-06
3.30166e-06
3.30206e-06
3.30257e-06
3.3032e-06
3.30397e-06
3.3049e-06
3.30599e-06
3.30729e-06
3.30894e-06
3.311e-06
3.31355e-06
3.31673e-06
3.32071e-06
3.32575e-06
3.33228e-06
3.34092e-06
3.35269e-06
3.36961e-06
3.39317e-06
3.42554e-06
3.46901e-06
3.52489e-06
3.59338e-06
3.67486e-06
3.77021e-06
3.88015e-06
4.00507e-06
4.14854e-06
4.31365e-06
4.49889e-06
4.71539e-06
4.98326e-06
5.32479e-06
5.74802e-06
6.23302e-06
6.72607e-06
7.15836e-06
7.55379e-06
8.24411e-06
1.04226e-05
1.77746e-05
3.30004e-06
3.30032e-06
3.30058e-06
3.30075e-06
3.30092e-06
3.3011e-06
3.30135e-06
3.30166e-06
3.30206e-06
3.30257e-06
3.3032e-06
3.30397e-06
3.3049e-06
3.30599e-06
3.30729e-06
3.30894e-06
3.311e-06
3.31354e-06
3.31672e-06
3.32068e-06
3.32571e-06
3.33221e-06
3.34081e-06
3.3525e-06
3.36927e-06
3.39256e-06
3.42453e-06
3.46743e-06
3.52258e-06
3.59017e-06
3.67057e-06
3.76463e-06
3.87309e-06
3.99626e-06
4.13771e-06
4.30057e-06
4.48314e-06
4.69624e-06
4.95978e-06
5.29619e-06
5.71427e-06
6.19541e-06
6.68712e-06
7.11807e-06
7.50027e-06
8.1335e-06
1.01432e-05
1.70638e-05
3.30004e-06
3.30032e-06
3.30058e-06
3.30075e-06
3.30092e-06
3.3011e-06
3.30134e-06
3.30166e-06
3.30206e-06
3.30257e-06
3.3032e-06
3.30397e-06
3.3049e-06
3.30599e-06
3.30729e-06
3.30894e-06
3.31099e-06
3.31354e-06
3.3167e-06
3.32066e-06
3.32567e-06
3.33214e-06
3.34069e-06
3.3523e-06
3.36891e-06
3.39192e-06
3.42345e-06
3.46576e-06
3.52015e-06
3.58681e-06
3.66608e-06
3.75882e-06
3.86576e-06
3.98717e-06
4.12659e-06
4.28725e-06
4.46722e-06
4.67708e-06
4.93653e-06
5.26816e-06
5.6815e-06
6.15914e-06
6.64985e-06
7.08023e-06
7.45198e-06
8.03633e-06
9.89758e-06
1.64425e-05
3.30004e-06
3.30032e-06
3.30057e-06
3.30075e-06
3.30091e-06
3.3011e-06
3.30134e-06
3.30166e-06
3.30206e-06
3.30257e-06
3.3032e-06
3.30397e-06
3.3049e-06
3.30599e-06
3.30729e-06
3.30894e-06
3.31099e-06
3.31353e-06
3.31669e-06
3.32063e-06
3.32562e-06
3.33206e-06
3.34056e-06
3.35208e-06
3.36853e-06
3.39124e-06
3.42232e-06
3.46401e-06
3.51761e-06
3.58329e-06
3.66139e-06
3.75279e-06
3.85818e-06
3.97781e-06
4.11522e-06
4.27374e-06
4.45122e-06
4.65802e-06
4.91365e-06
5.24088e-06
5.64987e-06
6.1244e-06
6.61443e-06
7.04488e-06
7.40848e-06
7.95101e-06
9.6812e-06
1.58973e-05
3.30004e-06
3.30032e-06
3.30057e-06
3.30075e-06
3.30091e-06
3.3011e-06
3.30134e-06
3.30166e-06
3.30206e-06
3.30257e-06
3.3032e-06
3.30397e-06
3.30489e-06
3.30598e-06
3.30729e-06
3.30894e-06
3.31098e-06
3.31352e-06
3.31667e-06
3.32061e-06
3.32558e-06
3.33198e-06
3.34043e-06
3.35185e-06
3.36813e-06
3.39053e-06
3.42114e-06
3.46218e-06
3.51494e-06
3.57961e-06
3.65652e-06
3.74654e-06
3.85037e-06
3.96823e-06
4.10367e-06
4.2601e-06
4.43523e-06
4.63916e-06
4.89125e-06
5.21444e-06
5.61953e-06
6.09133e-06
6.58098e-06
7.01202e-06
7.36937e-06
7.87593e-06
9.48956e-06
1.54152e-05
3.30004e-06
3.30032e-06
3.30057e-06
3.30075e-06
3.30091e-06
3.3011e-06
3.30134e-06
3.30165e-06
3.30206e-06
3.30257e-06
3.3032e-06
3.30397e-06
3.30489e-06
3.30598e-06
3.30729e-06
3.30894e-06
3.31098e-06
3.31351e-06
3.31665e-06
3.32058e-06
3.32553e-06
3.3319e-06
3.34028e-06
3.35161e-06
3.36771e-06
3.38978e-06
3.41989e-06
3.46026e-06
3.51217e-06
3.57579e-06
3.65148e-06
3.74009e-06
3.84235e-06
3.95846e-06
4.09197e-06
4.24641e-06
4.41932e-06
4.6206e-06
4.86944e-06
5.18898e-06
5.59058e-06
6.06004e-06
6.54963e-06
6.98171e-06
7.33437e-06
7.80992e-06
9.31932e-06
1.49862e-05
3.30004e-06
3.30032e-06
3.30057e-06
3.30075e-06
3.30091e-06
3.3011e-06
3.30134e-06
3.30165e-06
3.30206e-06
3.30257e-06
3.3032e-06
3.30397e-06
3.30489e-06
3.30598e-06
3.30729e-06
3.30893e-06
3.31097e-06
3.3135e-06
3.31664e-06
3.32055e-06
3.32548e-06
3.33181e-06
3.34014e-06
3.35136e-06
3.36727e-06
3.38899e-06
3.41859e-06
3.45826e-06
3.50928e-06
3.57183e-06
3.64627e-06
3.73346e-06
3.83417e-06
3.94855e-06
4.08019e-06
4.23274e-06
4.40358e-06
4.60242e-06
4.84832e-06
5.16459e-06
5.56312e-06
6.03063e-06
6.52047e-06
6.95399e-06
7.30325e-06
7.75197e-06
9.1677e-06
1.46023e-05
3.30004e-06
3.30032e-06
3.30057e-06
3.30075e-06
3.30091e-06
3.3011e-06
3.30134e-06
3.30165e-06
3.30206e-06
3.30257e-06
3.3032e-06
3.30397e-06
3.30489e-06
3.30598e-06
3.30729e-06
3.30893e-06
3.31097e-06
3.31349e-06
3.31662e-06
3.32051e-06
3.32542e-06
3.33172e-06
3.33998e-06
3.3511e-06
3.36681e-06
3.38817e-06
3.41724e-06
3.45618e-06
3.50628e-06
3.56774e-06
3.64091e-06
3.72668e-06
3.82584e-06
3.93854e-06
4.06838e-06
4.21916e-06
4.38808e-06
4.58471e-06
4.82797e-06
5.14133e-06
5.53722e-06
6.0032e-06
6.49359e-06
6.92892e-06
7.27585e-06
7.7013e-06
9.03243e-06
1.4257e-05
3.30004e-06
3.30032e-06
3.30057e-06
3.30075e-06
3.30091e-06
3.3011e-06
3.30134e-06
3.30165e-06
3.30206e-06
3.30257e-06
3.3032e-06
3.30397e-06
3.30489e-06
3.30598e-06
3.30729e-06
3.30893e-06
3.31096e-06
3.31348e-06
3.3166e-06
3.32048e-06
3.32537e-06
3.33162e-06
3.33982e-06
3.35082e-06
3.36632e-06
3.38732e-06
3.41583e-06
3.45403e-06
3.50319e-06
3.56353e-06
3.63542e-06
3.71977e-06
3.81741e-06
3.92848e-06
4.05661e-06
4.20573e-06
4.3729e-06
4.56754e-06
4.80846e-06
5.1193e-06
5.51297e-06
5.9778e-06
6.46908e-06
6.90658e-06
7.25208e-06
7.65725e-06
8.9116e-06
1.39445e-05
3.30004e-06
3.30032e-06
3.30057e-06
3.30075e-06
3.30091e-06
3.3011e-06
3.30134e-06
3.30165e-06
3.30206e-06
3.30256e-06
3.3032e-06
3.30397e-06
3.30489e-06
3.30598e-06
3.30729e-06
3.30893e-06
3.31096e-06
3.31347e-06
3.31658e-06
3.32045e-06
3.32531e-06
3.33152e-06
3.33965e-06
3.35053e-06
3.36582e-06
3.38643e-06
3.41437e-06
3.45181e-06
3.5e-06
3.55922e-06
3.62982e-06
3.71276e-06
3.80892e-06
3.91842e-06
4.04493e-06
4.19251e-06
4.35811e-06
4.55098e-06
4.78985e-06
5.09854e-06
5.4904e-06
5.95452e-06
6.44703e-06
6.88703e-06
7.23184e-06
7.61932e-06
8.80358e-06
1.366e-05
3.30004e-06
3.30032e-06
3.30057e-06
3.30075e-06
3.30091e-06
3.3011e-06
3.30134e-06
3.30165e-06
3.30205e-06
3.30256e-06
3.3032e-06
3.30397e-06
3.30489e-06
3.30598e-06
3.30729e-06
3.30893e-06
3.31095e-06
3.31346e-06
3.31656e-06
3.32041e-06
3.32525e-06
3.33142e-06
3.33948e-06
3.35023e-06
3.3653e-06
3.38551e-06
3.41287e-06
3.44952e-06
3.49674e-06
3.55481e-06
3.62413e-06
3.70569e-06
3.8004e-06
3.90841e-06
4.0334e-06
4.17959e-06
4.34377e-06
4.5351e-06
4.77222e-06
5.07911e-06
5.46959e-06
5.93341e-06
6.4275e-06
6.87034e-06
7.21514e-06
7.58701e-06
8.70696e-06
1.33997e-05
3.30004e-06
3.30032e-06
3.30057e-06
3.30075e-06
3.30091e-06
3.3011e-06
3.30134e-06
3.30165e-06
3.30205e-06
3.30256e-06
3.30319e-06
3.30397e-06
3.30489e-06
3.30598e-06
3.30729e-06
3.30893e-06
3.31095e-06
3.31345e-06
3.31654e-06
3.32038e-06
3.32519e-06
3.33132e-06
3.3393e-06
3.34992e-06
3.36476e-06
3.38456e-06
3.41132e-06
3.44717e-06
3.49341e-06
3.55033e-06
3.61838e-06
3.69859e-06
3.79191e-06
3.89851e-06
4.02209e-06
4.16701e-06
4.32994e-06
4.51995e-06
4.7556e-06
5.06106e-06
5.45056e-06
5.91451e-06
6.41058e-06
6.8566e-06
7.20194e-06
7.56007e-06
8.62059e-06
1.31599e-05
3.30003e-06
3.30032e-06
3.30057e-06
3.30075e-06
3.30091e-06
3.3011e-06
3.30134e-06
3.30165e-06
3.30205e-06
3.30256e-06
3.30319e-06
3.30397e-06
3.30489e-06
3.30599e-06
3.30729e-06
3.30893e-06
3.31095e-06
3.31344e-06
3.31652e-06
3.32034e-06
3.32513e-06
3.33121e-06
3.33911e-06
3.34961e-06
3.3642e-06
3.38358e-06
3.40974e-06
3.44478e-06
3.49002e-06
3.54581e-06
3.6126e-06
3.69149e-06
3.78349e-06
3.88876e-06
4.01105e-06
4.15483e-06
4.31669e-06
4.50558e-06
4.74005e-06
5.04443e-06
5.43339e-06
5.89788e-06
6.39636e-06
6.84584e-06
7.19235e-06
7.53818e-06
8.54329e-06
1.29375e-05
3.30003e-06
3.30032e-06
3.30057e-06
3.30074e-06
3.30091e-06
3.3011e-06
3.30134e-06
3.30165e-06
3.30205e-06
3.30256e-06
3.30319e-06
3.30396e-06
3.30489e-06
3.30599e-06
3.3073e-06
3.30893e-06
3.31094e-06
3.31343e-06
3.3165e-06
3.32031e-06
3.32506e-06
3.3311e-06
3.33893e-06
3.34929e-06
3.36363e-06
3.38259e-06
3.40812e-06
3.44235e-06
3.4866e-06
3.54125e-06
3.60682e-06
3.68444e-06
3.77519e-06
3.87923e-06
4.00033e-06
4.14311e-06
4.30406e-06
4.49205e-06
4.72561e-06
5.02926e-06
5.41809e-06
5.88357e-06
6.38489e-06
6.8385e-06
7.18563e-06
7.52148e-06
8.47446e-06
1.27304e-05
3.30003e-06
3.30032e-06
3.30057e-06
3.30074e-06
3.30091e-06
3.3011e-06
3.30134e-06
3.30165e-06
3.30205e-06
3.30256e-06
3.30319e-06
3.30396e-06
3.30489e-06
3.30599e-06
3.3073e-06
3.30893e-06
3.31094e-06
3.31342e-06
3.31648e-06
3.32027e-06
3.325e-06
3.33099e-06
3.33874e-06
3.34897e-06
3.36305e-06
3.38157e-06
3.40648e-06
3.43989e-06
3.48316e-06
3.5367e-06
3.60108e-06
3.67748e-06
3.76705e-06
3.86995e-06
3.98999e-06
4.1319e-06
4.2921e-06
4.4794e-06
4.71233e-06
5.01559e-06
5.4047e-06
5.87163e-06
6.37624e-06
6.83284e-06
7.18187e-06
7.50931e-06
8.41348e-06
1.25369e-05
3.30003e-06
3.30032e-06
3.30057e-06
3.30074e-06
3.30091e-06
3.3011e-06
3.30134e-06
3.30165e-06
3.30205e-06
3.30256e-06
3.30319e-06
3.30396e-06
3.30489e-06
3.30599e-06
3.3073e-06
3.30893e-06
3.31094e-06
3.31342e-06
3.31646e-06
3.32024e-06
3.32494e-06
3.33088e-06
3.33855e-06
3.34865e-06
3.36247e-06
3.38055e-06
3.40482e-06
3.43742e-06
3.47971e-06
3.53217e-06
3.5954e-06
3.67065e-06
3.75912e-06
3.86099e-06
3.98008e-06
4.12126e-06
4.28087e-06
4.46769e-06
4.70027e-06
5.00349e-06
5.3933e-06
5.86216e-06
6.36966e-06
6.82683e-06
7.17404e-06
7.49508e-06
8.36142e-06
1.2357e-05
3.30003e-06
3.30032e-06
3.30057e-06
3.30074e-06
3.30091e-06
3.3011e-06
3.30134e-06
3.30165e-06
3.30205e-06
3.30256e-06
3.30319e-06
3.30396e-06
3.30489e-06
3.30599e-06
3.3073e-06
3.30893e-06
3.31093e-06
3.31341e-06
3.31645e-06
3.3202e-06
3.32487e-06
3.33077e-06
3.33836e-06
3.34832e-06
3.36189e-06
3.37952e-06
3.40316e-06
3.43496e-06
3.47629e-06
3.5277e-06
3.58983e-06
3.664e-06
3.75146e-06
3.85239e-06
3.97065e-06
4.11123e-06
4.27041e-06
4.45695e-06
4.68944e-06
4.99299e-06
5.38391e-06
5.85538e-06
6.36353e-06
6.81812e-06
7.16342e-06
7.47908e-06
8.31512e-06
1.21886e-05
3.30003e-06
3.30031e-06
3.30057e-06
3.30074e-06
3.30091e-06
3.30109e-06
3.30133e-06
3.30165e-06
3.30205e-06
3.30256e-06
3.30319e-06
3.30396e-06
3.30489e-06
3.30599e-06
3.3073e-06
3.30893e-06
3.31093e-06
3.3134e-06
3.31643e-06
3.32016e-06
3.32481e-06
3.33065e-06
3.33817e-06
3.348e-06
3.36133e-06
3.3785e-06
3.40151e-06
3.43251e-06
3.47292e-06
3.52331e-06
3.5844e-06
3.65756e-06
3.74409e-06
3.8442e-06
3.96174e-06
4.10185e-06
4.26075e-06
4.44722e-06
4.67987e-06
4.98408e-06
5.37652e-06
5.84982e-06
6.35504e-06
6.80656e-06
7.14991e-06
7.46038e-06
8.27503e-06
1.20268e-05
3.30003e-06
3.30031e-06
3.30057e-06
3.30074e-06
3.30091e-06
3.30109e-06
3.30133e-06
3.30165e-06
3.30205e-06
3.30256e-06
3.30319e-06
3.30396e-06
3.30489e-06
3.306e-06
3.30731e-06
3.30893e-06
3.31093e-06
3.31339e-06
3.31641e-06
3.32013e-06
3.32474e-06
3.33054e-06
3.33798e-06
3.34767e-06
3.36076e-06
3.37751e-06
3.39989e-06
3.43011e-06
3.46961e-06
3.51904e-06
3.57915e-06
3.65137e-06
3.73707e-06
3.83645e-06
3.9534e-06
4.09315e-06
4.25193e-06
4.4385e-06
4.67158e-06
4.97677e-06
5.37111e-06
5.84321e-06
6.34415e-06
6.79218e-06
7.13328e-06
7.43965e-06
8.23271e-06
1.18722e-05
3.30003e-06
3.30031e-06
3.30057e-06
3.30074e-06
3.3009e-06
3.30109e-06
3.30133e-06
3.30164e-06
3.30205e-06
3.30256e-06
3.30319e-06
3.30396e-06
3.30489e-06
3.306e-06
3.30731e-06
3.30894e-06
3.31093e-06
3.31339e-06
3.3164e-06
3.3201e-06
3.32468e-06
3.33043e-06
3.33779e-06
3.34735e-06
3.3602e-06
3.37655e-06
3.3983e-06
3.42776e-06
3.4664e-06
3.51491e-06
3.57411e-06
3.64548e-06
3.73043e-06
3.82918e-06
3.94565e-06
4.08517e-06
4.24396e-06
4.43084e-06
4.6646e-06
4.97108e-06
5.36685e-06
5.83463e-06
6.3307e-06
6.77473e-06
7.11351e-06
7.41585e-06
8.18896e-06
1.17212e-05
3.30002e-06
3.30031e-06
3.30056e-06
3.30074e-06
3.3009e-06
3.30109e-06
3.30133e-06
3.30164e-06
3.30205e-06
3.30256e-06
3.30319e-06
3.30396e-06
3.3049e-06
3.306e-06
3.30732e-06
3.30894e-06
3.31094e-06
3.31339e-06
3.31638e-06
3.32007e-06
3.32462e-06
3.33032e-06
3.3376e-06
3.34703e-06
3.35966e-06
3.37561e-06
3.39679e-06
3.4255e-06
3.46332e-06
3.51097e-06
3.56933e-06
3.63993e-06
3.72422e-06
3.82244e-06
3.93853e-06
4.07793e-06
4.23689e-06
4.42425e-06
4.65893e-06
4.9671e-06
5.36128e-06
5.82396e-06
6.31459e-06
6.75424e-06
7.0904e-06
7.38955e-06
8.14476e-06
1.15735e-05
3.30002e-06
3.30031e-06
3.30056e-06
3.30074e-06
3.3009e-06
3.30109e-06
3.30133e-06
3.30164e-06
3.30205e-06
3.30256e-06
3.30319e-06
3.30397e-06
3.3049e-06
3.30601e-06
3.30732e-06
3.30895e-06
3.31094e-06
3.31339e-06
3.31637e-06
3.32004e-06
3.32457e-06
3.33022e-06
3.33742e-06
3.34673e-06
3.35913e-06
3.37472e-06
3.39536e-06
3.42336e-06
3.46039e-06
3.50724e-06
3.56484e-06
3.63474e-06
3.71847e-06
3.81625e-06
3.93206e-06
4.07147e-06
4.23072e-06
4.41875e-06
4.65459e-06
4.96393e-06
5.354e-06
5.81112e-06
6.29572e-06
6.7306e-06
7.06388e-06
7.36039e-06
8.0992e-06
1.14272e-05
3.30002e-06
3.30031e-06
3.30056e-06
3.30074e-06
3.3009e-06
3.30109e-06
3.30133e-06
3.30164e-06
3.30205e-06
3.30256e-06
3.30319e-06
3.30397e-06
3.3049e-06
3.30601e-06
3.30733e-06
3.30895e-06
3.31095e-06
3.31339e-06
3.31637e-06
3.32002e-06
3.32452e-06
3.33013e-06
3.33725e-06
3.34644e-06
3.35862e-06
3.37386e-06
3.39402e-06
3.42136e-06
3.45766e-06
3.50377e-06
3.56067e-06
3.62996e-06
3.7132e-06
3.81064e-06
3.92629e-06
4.0658e-06
4.22548e-06
4.41434e-06
4.65167e-06
4.95978e-06
5.34495e-06
5.796e-06
6.27402e-06
6.70375e-06
7.03391e-06
7.3284e-06
8.05229e-06
1.12832e-05
3.30002e-06
3.30031e-06
3.30056e-06
3.30074e-06
3.3009e-06
3.30109e-06
3.30133e-06
3.30164e-06
3.30204e-06
3.30256e-06
3.30319e-06
3.30397e-06
3.3049e-06
3.30602e-06
3.30734e-06
3.30896e-06
3.31095e-06
3.31339e-06
3.31636e-06
3.32e-06
3.32447e-06
3.33004e-06
3.33709e-06
3.34616e-06
3.35815e-06
3.37306e-06
3.39276e-06
3.41954e-06
3.45515e-06
3.50059e-06
3.55687e-06
3.62563e-06
3.70847e-06
3.80565e-06
3.92121e-06
4.06093e-06
4.22118e-06
4.41104e-06
4.64944e-06
4.95418e-06
5.33405e-06
5.77851e-06
6.24951e-06
6.67363e-06
7.00065e-06
7.29396e-06
8.00393e-06
1.11415e-05
3.30002e-06
3.30031e-06
3.30056e-06
3.30074e-06
3.3009e-06
3.30109e-06
3.30133e-06
3.30164e-06
3.30204e-06
3.30256e-06
3.30319e-06
3.30397e-06
3.30491e-06
3.30602e-06
3.30735e-06
3.30897e-06
3.31096e-06
3.3134e-06
3.31636e-06
3.31998e-06
3.32443e-06
3.32996e-06
3.33694e-06
3.34591e-06
3.3577e-06
3.37231e-06
3.39161e-06
3.41787e-06
3.45291e-06
3.49774e-06
3.55347e-06
3.62178e-06
3.70428e-06
3.80127e-06
3.91684e-06
4.05687e-06
4.2178e-06
4.40884e-06
4.64651e-06
4.94705e-06
5.32128e-06
5.75856e-06
6.22223e-06
6.6402e-06
6.96414e-06
7.25715e-06
7.9536e-06
1.10007e-05
3.30002e-06
3.30031e-06
3.30056e-06
3.30074e-06
3.3009e-06
3.30109e-06
3.30133e-06
3.30164e-06
3.30204e-06
3.30255e-06
3.30319e-06
3.30397e-06
3.30491e-06
3.30603e-06
3.30736e-06
3.30899e-06
3.31098e-06
3.31341e-06
3.31637e-06
3.31998e-06
3.3244e-06
3.32989e-06
3.33681e-06
3.34568e-06
3.3573e-06
3.37164e-06
3.39057e-06
3.41638e-06
3.4509e-06
3.49525e-06
3.5505e-06
3.61843e-06
3.70067e-06
3.79755e-06
3.91319e-06
4.05363e-06
4.21536e-06
4.40732e-06
4.64234e-06
4.93837e-06
5.30651e-06
5.73616e-06
6.19196e-06
6.60325e-06
6.92437e-06
7.21581e-06
7.89932e-06
1.0858e-05
3.30001e-06
3.30031e-06
3.30056e-06
3.30073e-06
3.3009e-06
3.30109e-06
3.30133e-06
3.30164e-06
3.30204e-06
3.30255e-06
3.30319e-06
3.30397e-06
3.30491e-06
3.30604e-06
3.30737e-06
3.309e-06
3.31099e-06
3.31342e-06
3.31637e-06
3.31997e-06
3.32438e-06
3.32983e-06
3.3367e-06
3.34548e-06
3.35694e-06
3.37103e-06
3.38966e-06
3.41508e-06
3.44915e-06
3.4931e-06
3.548e-06
3.6156e-06
3.69764e-06
3.79446e-06
3.91026e-06
4.05118e-06
4.21383e-06
4.4052e-06
4.63691e-06
4.92811e-06
5.28973e-06
5.71128e-06
6.15872e-06
6.56343e-06
6.88098e-06
7.17314e-06
7.84593e-06
1.07183e-05
3.30001e-06
3.30031e-06
3.30056e-06
3.30073e-06
3.3009e-06
3.30109e-06
3.30133e-06
3.30164e-06
3.30204e-06
3.30255e-06
3.30319e-06
3.30397e-06
3.30492e-06
3.30605e-06
3.30739e-06
3.30902e-06
3.31101e-06
3.31344e-06
3.31639e-06
3.31998e-06
3.32437e-06
3.3298e-06
3.33661e-06
3.34531e-06
3.35664e-06
3.37052e-06
3.38888e-06
3.41398e-06
3.44768e-06
3.49128e-06
3.54592e-06
3.61333e-06
3.6952e-06
3.79202e-06
3.90802e-06
4.04951e-06
4.21285e-06
4.40205e-06
4.63019e-06
4.91624e-06
5.27088e-06
5.68395e-06
6.12249e-06
6.51996e-06
6.83467e-06
7.12389e-06
7.78472e-06
1.05685e-05
3.30001e-06
3.3003e-06
3.30056e-06
3.30073e-06
3.3009e-06
3.30108e-06
3.30132e-06
3.30164e-06
3.30204e-06
3.30255e-06
3.30319e-06
3.30398e-06
3.30492e-06
3.30606e-06
3.3074e-06
3.30903e-06
3.31103e-06
3.31346e-06
3.31641e-06
3.31999e-06
3.32437e-06
3.32977e-06
3.33655e-06
3.34518e-06
3.35639e-06
3.37009e-06
3.38824e-06
3.41309e-06
3.4465e-06
3.48982e-06
3.54426e-06
3.61154e-06
3.69338e-06
3.79018e-06
3.90645e-06
4.04862e-06
4.21122e-06
4.39787e-06
4.6222e-06
4.90278e-06
5.25004e-06
5.65424e-06
6.08347e-06
6.47404e-06
6.78487e-06
7.07458e-06
7.72522e-06
1.04198e-05
3.30001e-06
3.3003e-06
3.30056e-06
3.30073e-06
3.3009e-06
3.30108e-06
3.30132e-06
3.30164e-06
3.30204e-06
3.30255e-06
3.30319e-06
3.30398e-06
3.30493e-06
3.30607e-06
3.30742e-06
3.30906e-06
3.31106e-06
3.31349e-06
3.31644e-06
3.32002e-06
3.32439e-06
3.32977e-06
3.33651e-06
3.34509e-06
3.3562e-06
3.36975e-06
3.38775e-06
3.41242e-06
3.44561e-06
3.48871e-06
3.54303e-06
3.61025e-06
3.69211e-06
3.78902e-06
3.90552e-06
4.04801e-06
4.20875e-06
4.39267e-06
4.61293e-06
4.88778e-06
5.2273e-06
5.62228e-06
6.04187e-06
6.42487e-06
6.73257e-06
7.01913e-06
7.65691e-06
1.0259e-05
3.30001e-06
3.3003e-06
3.30056e-06
3.30073e-06
3.30089e-06
3.30108e-06
3.30132e-06
3.30164e-06
3.30204e-06
3.30256e-06
3.3032e-06
3.30398e-06
3.30494e-06
3.30608e-06
3.30744e-06
3.30908e-06
3.31108e-06
3.31352e-06
3.31647e-06
3.32005e-06
3.32442e-06
3.32979e-06
3.33651e-06
3.34505e-06
3.35608e-06
3.36952e-06
3.3874e-06
3.41197e-06
3.44501e-06
3.48796e-06
3.54222e-06
3.60944e-06
3.69139e-06
3.78849e-06
3.90514e-06
4.04673e-06
4.20546e-06
4.38645e-06
4.60245e-06
4.87127e-06
5.20274e-06
5.5881e-06
5.99783e-06
6.37341e-06
6.6774e-06
6.96383e-06
7.58941e-06
1.00999e-05
3.3e-06
3.3003e-06
3.30055e-06
3.30073e-06
3.30089e-06
3.30108e-06
3.30132e-06
3.30164e-06
3.30204e-06
3.30256e-06
3.3032e-06
3.30399e-06
3.30494e-06
3.30609e-06
3.30746e-06
3.30911e-06
3.31112e-06
3.31356e-06
3.31652e-06
3.3201e-06
3.32446e-06
3.32983e-06
3.33654e-06
3.34506e-06
3.35603e-06
3.36939e-06
3.38721e-06
3.41172e-06
3.44469e-06
3.48757e-06
3.54182e-06
3.60912e-06
3.69119e-06
3.78854e-06
3.9047e-06
4.04481e-06
4.20137e-06
4.37926e-06
4.59079e-06
4.85332e-06
5.17643e-06
5.5519e-06
5.95155e-06
6.31912e-06
6.62026e-06
6.90279e-06
7.51317e-06
9.92767e-06
3.3e-06
3.3003e-06
3.30055e-06
3.30073e-06
3.30089e-06
3.30108e-06
3.30132e-06
3.30163e-06
3.30204e-06
3.30256e-06
3.3032e-06
3.30399e-06
3.30495e-06
3.3061e-06
3.30748e-06
3.30914e-06
3.31115e-06
3.3136e-06
3.31657e-06
3.32016e-06
3.32453e-06
3.3299e-06
3.3366e-06
3.34512e-06
3.35605e-06
3.36937e-06
3.38718e-06
3.41168e-06
3.44466e-06
3.48753e-06
3.54182e-06
3.60925e-06
3.69151e-06
3.78865e-06
3.90381e-06
4.04228e-06
4.19651e-06
4.37112e-06
4.57802e-06
4.83401e-06
5.14855e-06
5.51377e-06
5.90325e-06
6.26289e-06
6.56093e-06
6.84215e-06
7.43714e-06
9.75444e-06
3.3e-06
3.3003e-06
3.30055e-06
3.30073e-06
3.30089e-06
3.30108e-06
3.30132e-06
3.30163e-06
3.30204e-06
3.30256e-06
3.3032e-06
3.304e-06
3.30496e-06
3.30612e-06
3.30751e-06
3.30917e-06
3.3112e-06
3.31365e-06
3.31663e-06
3.32023e-06
3.32461e-06
3.32999e-06
3.33671e-06
3.34523e-06
3.35616e-06
3.36946e-06
3.38729e-06
3.41185e-06
3.44489e-06
3.48781e-06
3.54218e-06
3.60979e-06
3.69185e-06
3.78839e-06
3.90248e-06
4.03915e-06
4.19091e-06
4.36212e-06
4.5642e-06
4.81346e-06
5.11919e-06
5.47398e-06
5.85306e-06
6.20483e-06
6.49953e-06
6.77939e-06
7.35824e-06
9.57387e-06
3.3e-06
3.3003e-06
3.30055e-06
3.30073e-06
3.30089e-06
3.30108e-06
3.30132e-06
3.30163e-06
3.30204e-06
3.30256e-06
3.3032e-06
3.304e-06
3.30497e-06
3.30613e-06
3.30753e-06
3.30921e-06
3.31124e-06
3.31371e-06
3.3167e-06
3.32032e-06
3.32471e-06
3.33011e-06
3.33685e-06
3.3454e-06
3.35633e-06
3.36966e-06
3.38756e-06
3.41222e-06
3.44535e-06
3.48837e-06
3.54288e-06
3.61032e-06
3.69192e-06
3.7878e-06
3.90075e-06
4.03547e-06
4.18463e-06
4.35231e-06
4.54943e-06
4.79182e-06
5.08854e-06
5.4328e-06
5.80129e-06
6.14528e-06
6.43646e-06
6.71489e-06
7.27725e-06
9.38797e-06
3.29999e-06
3.3003e-06
3.30055e-06
3.30072e-06
3.30089e-06
3.30108e-06
3.30132e-06
3.30163e-06
3.30204e-06
3.30256e-06
3.30321e-06
3.30401e-06
3.30498e-06
3.30615e-06
3.30756e-06
3.30925e-06
3.31129e-06
3.31378e-06
3.31678e-06
3.32042e-06
3.32484e-06
3.33027e-06
3.33704e-06
3.34563e-06
3.35659e-06
3.36996e-06
3.38797e-06
3.41277e-06
3.44605e-06
3.48919e-06
3.54356e-06
3.61068e-06
3.69176e-06
3.78692e-06
3.89865e-06
4.03128e-06
4.17772e-06
4.34179e-06
4.53385e-06
4.76926e-06
5.05682e-06
5.39051e-06
5.74828e-06
6.08464e-06
6.37212e-06
6.64902e-06
7.1944e-06
9.19636e-06
3.29999e-06
3.3003e-06
3.30055e-06
3.30072e-06
3.30089e-06
3.30108e-06
3.30132e-06
3.30163e-06
3.30204e-06
3.30256e-06
3.30321e-06
3.30401e-06
3.30499e-06
3.30617e-06
3.30759e-06
3.30929e-06
3.31135e-06
3.31385e-06
3.31687e-06
3.32053e-06
3.32498e-06
3.33045e-06
3.33728e-06
3.34592e-06
3.35693e-06
3.37037e-06
3.38851e-06
3.41346e-06
3.4468e-06
3.48994e-06
3.54418e-06
3.61095e-06
3.69143e-06
3.7858e-06
3.89622e-06
4.02664e-06
4.17027e-06
4.33067e-06
4.51758e-06
4.74596e-06
5.02429e-06
5.34745e-06
5.69444e-06
6.02336e-06
6.30695e-06
6.58222e-06
7.1103e-06
9.00052e-06
3.29999e-06
3.30029e-06
3.30055e-06
3.30072e-06
3.30089e-06
3.30108e-06
3.30132e-06
3.30163e-06
3.30204e-06
3.30256e-06
3.30321e-06
3.30402e-06
3.305e-06
3.30619e-06
3.30762e-06
3.30933e-06
3.31141e-06
3.31393e-06
3.31697e-06
3.32067e-06
3.32516e-06
3.33067e-06
3.33756e-06
3.34628e-06
3.35734e-06
3.37087e-06
3.38911e-06
3.41413e-06
3.44752e-06
3.49067e-06
3.5448e-06
3.61118e-06
3.69099e-06
3.7845e-06
3.89353e-06
4.02162e-06
4.16236e-06
4.31906e-06
4.50079e-06
4.72212e-06
4.99122e-06
5.30394e-06
5.64023e-06
5.9619e-06
6.2416e-06
6.51514e-06
7.02553e-06
8.80231e-06
3.29999e-06
3.30029e-06
3.30055e-06
3.30072e-06
3.30088e-06
3.30107e-06
3.30132e-06
3.30163e-06
3.30204e-06
3.30256e-06
3.30322e-06
3.30403e-06
3.30501e-06
3.30621e-06
3.30765e-06
3.30938e-06
3.31147e-06
3.31401e-06
3.31709e-06
3.32081e-06
3.32535e-06
3.33093e-06
3.33789e-06
3.3467e-06
3.35783e-06
3.37139e-06
3.38969e-06
3.41479e-06
3.44824e-06
3.49141e-06
3.54543e-06
3.61143e-06
3.69054e-06
3.78311e-06
3.89065e-06
4.0163e-06
4.15411e-06
4.30711e-06
4.48366e-06
4.69799e-06
4.95794e-06
5.26036e-06
5.58615e-06
5.90078e-06
6.17668e-06
6.44828e-06
6.94004e-06
8.59925e-06
3.29998e-06
3.30029e-06
3.30054e-06
3.30072e-06
3.30088e-06
3.30107e-06
3.30131e-06
3.30163e-06
3.30204e-06
3.30257e-06
3.30322e-06
3.30403e-06
3.30503e-06
3.30623e-06
3.30768e-06
3.30943e-06
3.31155e-06
3.31411e-06
3.31721e-06
3.32098e-06
3.32557e-06