/*--------------------------------*- C++ -*----------------------------------*\
  =========                 |
  \\      /  F ield         | OpenFOAM: The Open Source CFD Toolbox
   \\    /   O peration     | Website:  https://openfoam.org
    \\  /    A nd           | Version:  10
     \\/     M anipulation  |
\*---------------------------------------------------------------------------*/
FoamFile
{
    format      ascii;
    class       volScalarField;
    location    "5";
    object      nuTilda;
}
// * * * * * * * * * * * * * * * * * * * * * * * * * * * * * * * * * * * * * //

dimensions      [0 2 -1 0 0 0 0];

internalField   nonuniform List<scalar> 
38016
(
4.70415e-05
4.70424e-05
4.70434e-05
4.7044e-05
4.70445e-05
4.70452e-05
4.7046e-05
4.70471e-05
4.70485e-05
4.70502e-05
4.70524e-05
4.7055e-05
4.70581e-05
4.70617e-05
4.70659e-05
4.70713e-05
4.70781e-05
4.70867e-05
4.70975e-05
4.71112e-05
4.71288e-05
4.71518e-05
4.71828e-05
4.72257e-05
4.72874e-05
4.73742e-05
4.74927e-05
4.7651e-05
4.78528e-05
4.80979e-05
4.83859e-05
4.87185e-05
4.90961e-05
4.95178e-05
4.9991e-05
5.05194e-05
5.1103e-05
5.17799e-05
5.26059e-05
5.36212e-05
5.48024e-05
5.60672e-05
5.7389e-05
5.91529e-05
6.29633e-05
7.29583e-05
9.75538e-05
0.000151274
4.70415e-05
4.70424e-05
4.70434e-05
4.7044e-05
4.70445e-05
4.70452e-05
4.7046e-05
4.70471e-05
4.70485e-05
4.70502e-05
4.70524e-05
4.7055e-05
4.70581e-05
4.70617e-05
4.70659e-05
4.70713e-05
4.70781e-05
4.70867e-05
4.70975e-05
4.71112e-05
4.71287e-05
4.71516e-05
4.71825e-05
4.7225e-05
4.72864e-05
4.73725e-05
4.74901e-05
4.76471e-05
4.78475e-05
4.80908e-05
4.83767e-05
4.8707e-05
4.9082e-05
4.95007e-05
4.99706e-05
5.04952e-05
5.10741e-05
5.17453e-05
5.2564e-05
5.35707e-05
5.47431e-05
5.59983e-05
5.73002e-05
5.89938e-05
6.25757e-05
7.1968e-05
9.5272e-05
0.000146677
4.70415e-05
4.70424e-05
4.70434e-05
4.7044e-05
4.70445e-05
4.70452e-05
4.7046e-05
4.70471e-05
4.70485e-05
4.70502e-05
4.70524e-05
4.7055e-05
4.70581e-05
4.70617e-05
4.70659e-05
4.70713e-05
4.70781e-05
4.70867e-05
4.70974e-05
4.71111e-05
4.71286e-05
4.71515e-05
4.71823e-05
4.72246e-05
4.72856e-05
4.73712e-05
4.74879e-05
4.76437e-05
4.78426e-05
4.80841e-05
4.83679e-05
4.86957e-05
4.90678e-05
4.94833e-05
4.99493e-05
5.04697e-05
5.10435e-05
5.17083e-05
5.25189e-05
5.35164e-05
5.46792e-05
5.59242e-05
5.7206e-05
5.88298e-05
6.21851e-05
7.09777e-05
9.29985e-05
0.000142095
4.70415e-05
4.70424e-05
4.70434e-05
4.7044e-05
4.70445e-05
4.70452e-05
4.7046e-05
4.70471e-05
4.70485e-05
4.70502e-05
4.70524e-05
4.7055e-05
4.70581e-05
4.70617e-05
4.70659e-05
4.70713e-05
4.70781e-05
4.70867e-05
4.70974e-05
4.71111e-05
4.71285e-05
4.71514e-05
4.7182e-05
4.72242e-05
4.72849e-05
4.73699e-05
4.74857e-05
4.76404e-05
4.78378e-05
4.80775e-05
4.83591e-05
4.86845e-05
4.90538e-05
4.94659e-05
4.99282e-05
5.04441e-05
5.10126e-05
5.16705e-05
5.24723e-05
5.34594e-05
5.46117e-05
5.58458e-05
5.71059e-05
5.86516e-05
6.17503e-05
6.9861e-05
9.04219e-05
0.000136921
4.70415e-05
4.70424e-05
4.70434e-05
4.70439e-05
4.70445e-05
4.70452e-05
4.7046e-05
4.70471e-05
4.70485e-05
4.70502e-05
4.70524e-05
4.7055e-05
4.70581e-05
4.70617e-05
4.70659e-05
4.70713e-05
4.70781e-05
4.70866e-05
4.70974e-05
4.7111e-05
4.71284e-05
4.71512e-05
4.71818e-05
4.72238e-05
4.72842e-05
4.73686e-05
4.74836e-05
4.76371e-05
4.7833e-05
4.8071e-05
4.83505e-05
4.86734e-05
4.90398e-05
4.94485e-05
4.99069e-05
5.04184e-05
5.09813e-05
5.16317e-05
5.24238e-05
5.33996e-05
5.45405e-05
5.57633e-05
5.70012e-05
5.84653e-05
6.12914e-05
6.86727e-05
8.76626e-05
0.000131373
4.70415e-05
4.70424e-05
4.70434e-05
4.70439e-05
4.70445e-05
4.70452e-05
4.7046e-05
4.70471e-05
4.70485e-05
4.70502e-05
4.70523e-05
4.70549e-05
4.70581e-05
4.70617e-05
4.70659e-05
4.70713e-05
4.70781e-05
4.70866e-05
4.70974e-05
4.7111e-05
4.71284e-05
4.71511e-05
4.71816e-05
4.72234e-05
4.72835e-05
4.73673e-05
4.74814e-05
4.76338e-05
4.78281e-05
4.80642e-05
4.83416e-05
4.86619e-05
4.90253e-05
4.94305e-05
4.98848e-05
5.03915e-05
5.09484e-05
5.1591e-05
5.23727e-05
5.33363e-05
5.44651e-05
5.56765e-05
5.68932e-05
5.82783e-05
6.0836e-05
6.74899e-05
8.48967e-05
0.00012579
4.70415e-05
4.70424e-05
4.70434e-05
4.70439e-05
4.70445e-05
4.70452e-05
4.7046e-05
4.70471e-05
4.70485e-05
4.70502e-05
4.70523e-05
4.70549e-05
4.7058e-05
4.70617e-05
4.70659e-05
4.70713e-05
4.70781e-05
4.70866e-05
4.70973e-05
4.71109e-05
4.71283e-05
4.71509e-05
4.71813e-05
4.72229e-05
4.72827e-05
4.73659e-05
4.74791e-05
4.76302e-05
4.78229e-05
4.80571e-05
4.83321e-05
4.86497e-05
4.90099e-05
4.94114e-05
4.98614e-05
5.03631e-05
5.09139e-05
5.15482e-05
5.23191e-05
5.32701e-05
5.43866e-05
5.55869e-05
5.6785e-05
5.80997e-05
6.04137e-05
6.63971e-05
8.23286e-05
0.000120576
4.70415e-05
4.70424e-05
4.70434e-05
4.70439e-05
4.70445e-05
4.70452e-05
4.7046e-05
4.70471e-05
4.70485e-05
4.70502e-05
4.70523e-05
4.70549e-05
4.7058e-05
4.70617e-05
4.70659e-05
4.70713e-05
4.70781e-05
4.70866e-05
4.70973e-05
4.71109e-05
4.71282e-05
4.71508e-05
4.7181e-05
4.72225e-05
4.72819e-05
4.73644e-05
4.74766e-05
4.76263e-05
4.78174e-05
4.80495e-05
4.8322e-05
4.86367e-05
4.89936e-05
4.93912e-05
4.98366e-05
5.03332e-05
5.08775e-05
5.15033e-05
5.22631e-05
5.32014e-05
5.43056e-05
5.54954e-05
5.66776e-05
5.79317e-05
6.00307e-05
6.54125e-05
8.00034e-05
0.000115826
4.70415e-05
4.70424e-05
4.70434e-05
4.70439e-05
4.70445e-05
4.70452e-05
4.7046e-05
4.70471e-05
4.70485e-05
4.70502e-05
4.70523e-05
4.70549e-05
4.7058e-05
4.70617e-05
4.70659e-05
4.70713e-05
4.70781e-05
4.70866e-05
4.70973e-05
4.71108e-05
4.71281e-05
4.71506e-05
4.71807e-05
4.72219e-05
4.7281e-05
4.73628e-05
4.7474e-05
4.76223e-05
4.78115e-05
4.80414e-05
4.83113e-05
4.86229e-05
4.89763e-05
4.93698e-05
4.98104e-05
5.03017e-05
5.08394e-05
5.14566e-05
5.22052e-05
5.31308e-05
5.42229e-05
5.54029e-05
5.65719e-05
5.77751e-05
5.96882e-05
6.45387e-05
7.79291e-05
0.00011156
4.70415e-05
4.70424e-05
4.70433e-05
4.70439e-05
4.70445e-05
4.70452e-05
4.7046e-05
4.70471e-05
4.70485e-05
4.70502e-05
4.70523e-05
4.70549e-05
4.7058e-05
4.70617e-05
4.70659e-05
4.70713e-05
4.7078e-05
4.70866e-05
4.70972e-05
4.71108e-05
4.7128e-05
4.71504e-05
4.71804e-05
4.72214e-05
4.728e-05
4.73611e-05
4.74712e-05
4.7618e-05
4.78053e-05
4.80328e-05
4.83e-05
4.86084e-05
4.8958e-05
4.93472e-05
4.97829e-05
5.02687e-05
5.07997e-05
5.14082e-05
5.21458e-05
5.30587e-05
5.41392e-05
5.53104e-05
5.64688e-05
5.76301e-05
5.93843e-05
6.37707e-05
7.60949e-05
0.000107757
4.70415e-05
4.70424e-05
4.70433e-05
4.70439e-05
4.70445e-05
4.70452e-05
4.7046e-05
4.70471e-05
4.70485e-05
4.70502e-05
4.70523e-05
4.70549e-05
4.7058e-05
4.70617e-05
4.70659e-05
4.70713e-05
4.7078e-05
4.70865e-05
4.70972e-05
4.71107e-05
4.71279e-05
4.71502e-05
4.71801e-05
4.72208e-05
4.7279e-05
4.73593e-05
4.74682e-05
4.76134e-05
4.77987e-05
4.80237e-05
4.8288e-05
4.8593e-05
4.89388e-05
4.93235e-05
4.97541e-05
5.02344e-05
5.07587e-05
5.13585e-05
5.20852e-05
5.2986e-05
5.40553e-05
5.52185e-05
5.63688e-05
5.74962e-05
5.91164e-05
6.31002e-05
7.44824e-05
0.000104383
4.70415e-05
4.70424e-05
4.70433e-05
4.70439e-05
4.70445e-05
4.70452e-05
4.7046e-05
4.70471e-05
4.70484e-05
4.70502e-05
4.70523e-05
4.70549e-05
4.7058e-05
4.70617e-05
4.70659e-05
4.70713e-05
4.7078e-05
4.70865e-05
4.70972e-05
4.71106e-05
4.71277e-05
4.715e-05
4.71797e-05
4.72202e-05
4.72779e-05
4.73573e-05
4.7465e-05
4.76085e-05
4.77916e-05
4.80141e-05
4.82753e-05
4.85767e-05
4.89185e-05
4.92987e-05
4.97241e-05
5.01988e-05
5.07164e-05
5.13079e-05
5.20239e-05
5.2913e-05
5.3972e-05
5.51282e-05
5.62725e-05
5.73729e-05
5.88806e-05
6.25168e-05
7.30684e-05
0.000101396
4.70415e-05
4.70424e-05
4.70433e-05
4.70439e-05
4.70445e-05
4.70452e-05
4.7046e-05
4.70471e-05
4.70484e-05
4.70502e-05
4.70523e-05
4.70549e-05
4.7058e-05
4.70617e-05
4.70659e-05
4.70713e-05
4.7078e-05
4.70865e-05
4.70971e-05
4.71105e-05
4.71276e-05
4.71497e-05
4.71793e-05
4.72195e-05
4.72768e-05
4.73553e-05
4.74616e-05
4.76033e-05
4.77842e-05
4.8004e-05
4.82619e-05
4.85597e-05
4.88974e-05
4.92728e-05
4.9693e-05
5.01621e-05
5.06732e-05
5.12565e-05
5.19624e-05
5.28405e-05
5.38898e-05
5.504e-05
5.61801e-05
5.72595e-05
5.86733e-05
6.20097e-05
7.18286e-05
9.87489e-05
4.70415e-05
4.70424e-05
4.70433e-05
4.70439e-05
4.70445e-05
4.70452e-05
4.7046e-05
4.70471e-05
4.70484e-05
4.70502e-05
4.70523e-05
4.70549e-05
4.7058e-05
4.70617e-05
4.70659e-05
4.70712e-05
4.7078e-05
4.70865e-05
4.70971e-05
4.71104e-05
4.71274e-05
4.71495e-05
4.71789e-05
4.72188e-05
4.72755e-05
4.73531e-05
4.74581e-05
4.75979e-05
4.77764e-05
4.79933e-05
4.82479e-05
4.85419e-05
4.88753e-05
4.9246e-05
4.96609e-05
5.01245e-05
5.06293e-05
5.12047e-05
5.19011e-05
5.27689e-05
5.38095e-05
5.49545e-05
5.60921e-05
5.71553e-05
5.8491e-05
6.15687e-05
7.07401e-05
9.63994e-05
4.70415e-05
4.70424e-05
4.70433e-05
4.70439e-05
4.70445e-05
4.70451e-05
4.7046e-05
4.70471e-05
4.70484e-05
4.70502e-05
4.70523e-05
4.70549e-05
4.7058e-05
4.70617e-05
4.70659e-05
4.70712e-05
4.7078e-05
4.70864e-05
4.7097e-05
4.71104e-05
4.71273e-05
4.71492e-05
4.71784e-05
4.72181e-05
4.72742e-05
4.73508e-05
4.74543e-05
4.75922e-05
4.77682e-05
4.79821e-05
4.82333e-05
4.85233e-05
4.88523e-05
4.92182e-05
4.96279e-05
5.00862e-05
5.05848e-05
5.11528e-05
5.18403e-05
5.26987e-05
5.37315e-05
5.48722e-05
5.60086e-05
5.70598e-05
5.83304e-05
6.11848e-05
6.97828e-05
9.43091e-05
4.70415e-05
4.70424e-05
4.70433e-05
4.70439e-05
4.70445e-05
4.70451e-05
4.7046e-05
4.70471e-05
4.70484e-05
4.70502e-05
4.70523e-05
4.70549e-05
4.7058e-05
4.70617e-05
4.70659e-05
4.70712e-05
4.7078e-05
4.70864e-05
4.7097e-05
4.71103e-05
4.71271e-05
4.7149e-05
4.7178e-05
4.72173e-05
4.72729e-05
4.73484e-05
4.74504e-05
4.75862e-05
4.77596e-05
4.79704e-05
4.8218e-05
4.8504e-05
4.88286e-05
4.91896e-05
4.95942e-05
5.00472e-05
5.05401e-05
5.11012e-05
5.17804e-05
5.26303e-05
5.36563e-05
5.47937e-05
5.59301e-05
5.69725e-05
5.81892e-05
6.08507e-05
6.89399e-05
9.2448e-05
4.70415e-05
4.70424e-05
4.70433e-05
4.70439e-05
4.70445e-05
4.70451e-05
4.7046e-05
4.70471e-05
4.70484e-05
4.70502e-05
4.70523e-05
4.70549e-05
4.7058e-05
4.70616e-05
4.70659e-05
4.70712e-05
4.7078e-05
4.70864e-05
4.70969e-05
4.71102e-05
4.71269e-05
4.71487e-05
4.71775e-05
4.72164e-05
4.72714e-05
4.73459e-05
4.74463e-05
4.75799e-05
4.77506e-05
4.79582e-05
4.82021e-05
4.8484e-05
4.88041e-05
4.91604e-05
4.95598e-05
5.00079e-05
5.04953e-05
5.10501e-05
5.17218e-05
5.25641e-05
5.35841e-05
5.4719e-05
5.58565e-05
5.6893e-05
5.80649e-05
6.05588e-05
6.81943e-05
9.07814e-05
4.70415e-05
4.70424e-05
4.70433e-05
4.70439e-05
4.70445e-05
4.70451e-05
4.7046e-05
4.7047e-05
4.70484e-05
4.70502e-05
4.70523e-05
4.70549e-05
4.7058e-05
4.70616e-05
4.70659e-05
4.70712e-05
4.70779e-05
4.70863e-05
4.70968e-05
4.711e-05
4.71268e-05
4.71484e-05
4.7177e-05
4.72155e-05
4.72699e-05
4.73432e-05
4.74419e-05
4.75733e-05
4.77412e-05
4.79455e-05
4.81856e-05
4.84633e-05
4.8779e-05
4.91305e-05
4.9525e-05
4.99684e-05
5.04508e-05
5.09998e-05
5.16648e-05
5.25003e-05
5.35154e-05
5.46486e-05
5.57881e-05
5.6821e-05
5.79557e-05
6.03035e-05
6.75326e-05
8.92835e-05
4.70415e-05
4.70424e-05
4.70433e-05
4.70439e-05
4.70445e-05
4.70451e-05
4.7046e-05
4.7047e-05
4.70484e-05
4.70502e-05
4.70523e-05
4.70549e-05
4.7058e-05
4.70616e-05
4.70659e-05
4.70712e-05
4.70779e-05
4.70863e-05
4.70968e-05
4.71099e-05
4.71266e-05
4.7148e-05
4.71764e-05
4.72146e-05
4.72683e-05
4.73404e-05
4.74374e-05
4.75664e-05
4.77314e-05
4.79323e-05
4.81685e-05
4.84421e-05
4.87534e-05
4.91002e-05
4.949e-05
4.99289e-05
5.04067e-05
5.09505e-05
5.16095e-05
5.24392e-05
5.34502e-05
5.45827e-05
5.5725e-05
5.67563e-05
5.786e-05
6.00801e-05
6.69437e-05
8.7932e-05
4.70415e-05
4.70424e-05
4.70433e-05
4.70439e-05
4.70445e-05
4.70451e-05
4.7046e-05
4.7047e-05
4.70484e-05
4.70502e-05
4.70523e-05
4.70549e-05
4.7058e-05
4.70616e-05
4.70659e-05
4.70712e-05
4.70779e-05
4.70863e-05
4.70967e-05
4.71098e-05
4.71264e-05
4.71477e-05
4.71758e-05
4.72136e-05
4.72666e-05
4.73375e-05
4.74326e-05
4.75592e-05
4.77213e-05
4.79187e-05
4.8151e-05
4.84203e-05
4.87273e-05
4.90696e-05
4.94548e-05
4.98897e-05
5.03633e-05
5.09025e-05
5.15563e-05
5.23811e-05
5.3389e-05
5.45214e-05
5.56674e-05
5.66987e-05
5.77769e-05
5.98846e-05
6.64182e-05
8.67082e-05
4.70415e-05
4.70424e-05
4.70433e-05
4.70439e-05
4.70445e-05
4.70451e-05
4.7046e-05
4.7047e-05
4.70484e-05
4.70502e-05
4.70523e-05
4.70549e-05
4.7058e-05
4.70616e-05
4.70659e-05
4.70712e-05
4.70779e-05
4.70862e-05
4.70966e-05
4.71097e-05
4.71262e-05
4.71473e-05
4.71752e-05
4.72126e-05
4.72649e-05
4.73345e-05
4.74277e-05
4.75518e-05
4.77108e-05
4.79047e-05
4.81331e-05
4.83982e-05
4.87008e-05
4.90388e-05
4.94198e-05
4.98509e-05
5.03208e-05
5.0856e-05
5.15054e-05
5.23261e-05
5.33317e-05
5.4465e-05
5.56154e-05
5.66482e-05
5.77052e-05
5.97139e-05
6.59481e-05
8.55953e-05
4.70415e-05
4.70424e-05
4.70433e-05
4.70439e-05
4.70445e-05
4.70451e-05
4.7046e-05
4.7047e-05
4.70484e-05
4.70502e-05
4.70523e-05
4.70549e-05
4.7058e-05
4.70616e-05
4.70659e-05
4.70712e-05
4.70779e-05
4.70862e-05
4.70966e-05
4.71096e-05
4.71259e-05
4.7147e-05
4.71746e-05
4.72115e-05
4.7263e-05
4.73313e-05
4.74226e-05
4.75442e-05
4.77e-05
4.78903e-05
4.81148e-05
4.83757e-05
4.86742e-05
4.9008e-05
4.9385e-05
4.98127e-05
5.02794e-05
5.08112e-05
5.14569e-05
5.22744e-05
5.32787e-05
5.44137e-05
5.55692e-05
5.66049e-05
5.76444e-05
5.95653e-05
6.55264e-05
8.45789e-05
4.70415e-05
4.70424e-05
4.70433e-05
4.70439e-05
4.70445e-05
4.70451e-05
4.7046e-05
4.7047e-05
4.70484e-05
4.70501e-05
4.70523e-05
4.70549e-05
4.7058e-05
4.70616e-05
4.70659e-05
4.70712e-05
4.70779e-05
4.70862e-05
4.70965e-05
4.71094e-05
4.71257e-05
4.71466e-05
4.71739e-05
4.72104e-05
4.72611e-05
4.7328e-05
4.74174e-05
4.75363e-05
4.7689e-05
4.78757e-05
4.80962e-05
4.8353e-05
4.86475e-05
4.89773e-05
4.93507e-05
4.97754e-05
5.02393e-05
5.07683e-05
5.1411e-05
5.22262e-05
5.323e-05
5.43675e-05
5.55289e-05
5.65686e-05
5.75938e-05
5.94365e-05
6.51476e-05
8.36473e-05
4.70415e-05
4.70424e-05
4.70433e-05
4.70439e-05
4.70445e-05
4.70451e-05
4.7046e-05
4.7047e-05
4.70484e-05
4.70501e-05
4.70523e-05
4.70549e-05
4.7058e-05
4.70616e-05
4.70659e-05
4.70712e-05
4.70779e-05
4.70861e-05
4.70964e-05
4.71093e-05
4.71255e-05
4.71462e-05
4.71733e-05
4.72093e-05
4.72591e-05
4.73246e-05
4.7412e-05
4.75283e-05
4.76777e-05
4.78608e-05
4.80774e-05
4.83303e-05
4.86208e-05
4.8947e-05
4.9317e-05
4.97391e-05
5.02006e-05
5.07274e-05
5.13678e-05
5.21816e-05
5.31858e-05
5.43267e-05
5.54948e-05
5.65395e-05
5.75532e-05
5.93258e-05
6.4806e-05
8.2788e-05
4.70415e-05
4.70424e-05
4.70433e-05
4.70439e-05
4.70445e-05
4.70451e-05
4.7046e-05
4.7047e-05
4.70484e-05
4.70501e-05
4.70523e-05
4.70549e-05
4.7058e-05
4.70616e-05
4.70659e-05
4.70712e-05
4.70778e-05
4.70861e-05
4.70964e-05
4.71092e-05
4.71253e-05
4.71458e-05
4.71726e-05
4.72081e-05
4.72571e-05
4.73212e-05
4.74064e-05
4.752e-05
4.76662e-05
4.78457e-05
4.80585e-05
4.83075e-05
4.85944e-05
4.89172e-05
4.92841e-05
4.9704e-05
5.01637e-05
5.06887e-05
5.13276e-05
5.21407e-05
5.31463e-05
5.42913e-05
5.5467e-05
5.65177e-05
5.75225e-05
5.92316e-05
6.44973e-05
8.19911e-05
4.70415e-05
4.70424e-05
4.70433e-05
4.70439e-05
4.70445e-05
4.70451e-05
4.7046e-05
4.7047e-05
4.70484e-05
4.70501e-05
4.70523e-05
4.70549e-05
4.7058e-05
4.70616e-05
4.70659e-05
4.70712e-05
4.70778e-05
4.70861e-05
4.70963e-05
4.7109e-05
4.7125e-05
4.71454e-05
4.71719e-05
4.72069e-05
4.7255e-05
4.73176e-05
4.74008e-05
4.75117e-05
4.76547e-05
4.78306e-05
4.80396e-05
4.82849e-05
4.85684e-05
4.8888e-05
4.92523e-05
4.96702e-05
5.01285e-05
5.06524e-05
5.12905e-05
5.21037e-05
5.31115e-05
5.42615e-05
5.54456e-05
5.65058e-05
5.74953e-05
5.91552e-05
6.42185e-05
8.12498e-05
4.70415e-05
4.70424e-05
4.70433e-05
4.70439e-05
4.70445e-05
4.70451e-05
4.70459e-05
4.7047e-05
4.70484e-05
4.70501e-05
4.70523e-05
4.70549e-05
4.7058e-05
4.70616e-05
4.70659e-05
4.70712e-05
4.70778e-05
4.7086e-05
4.70962e-05
4.71089e-05
4.71248e-05
4.7145e-05
4.71712e-05
4.72057e-05
4.72529e-05
4.7314e-05
4.7395e-05
4.75032e-05
4.7643e-05
4.78154e-05
4.80208e-05
4.82626e-05
4.85429e-05
4.88596e-05
4.92215e-05
4.96379e-05
5.00952e-05
5.06186e-05
5.12565e-05
5.20707e-05
5.30816e-05
5.42374e-05
5.5431e-05
5.64886e-05
5.74637e-05
5.90749e-05
6.3967e-05
8.05586e-05
4.70415e-05
4.70424e-05
4.70433e-05
4.70439e-05
4.70445e-05
4.70451e-05
4.70459e-05
4.7047e-05
4.70484e-05
4.70501e-05
4.70523e-05
4.70549e-05
4.7058e-05
4.70616e-05
4.70659e-05
4.70712e-05
4.70778e-05
4.7086e-05
4.70961e-05
4.71088e-05
4.71245e-05
4.71445e-05
4.71705e-05
4.72045e-05
4.72508e-05
4.73103e-05
4.73893e-05
4.74948e-05
4.76314e-05
4.78004e-05
4.80023e-05
4.82408e-05
4.8518e-05
4.88323e-05
4.91921e-05
4.96074e-05
5.00641e-05
5.05874e-05
5.12259e-05
5.20418e-05
5.30567e-05
5.42194e-05
5.54157e-05
5.64661e-05
5.74278e-05
5.89959e-05
6.37513e-05
7.99198e-05
4.70415e-05
4.70424e-05
4.70433e-05
4.70439e-05
4.70445e-05
4.70451e-05
4.70459e-05
4.7047e-05
4.70484e-05
4.70501e-05
4.70523e-05
4.70549e-05
4.7058e-05
4.70616e-05
4.70659e-05
4.70712e-05
4.70778e-05
4.7086e-05
4.70961e-05
4.71086e-05
4.71243e-05
4.71441e-05
4.71697e-05
4.72033e-05
4.72487e-05
4.73067e-05
4.73835e-05
4.74863e-05
4.76199e-05
4.77855e-05
4.79841e-05
4.82195e-05
4.8494e-05
4.8806e-05
4.91642e-05
4.95786e-05
5.00352e-05
5.0559e-05
5.11987e-05
5.20172e-05
5.3037e-05
5.42091e-05
5.53953e-05
5.6438e-05
5.73871e-05
5.89167e-05
6.35456e-05
7.93252e-05
4.70415e-05
4.70424e-05
4.70433e-05
4.70439e-05
4.70445e-05
4.70451e-05
4.70459e-05
4.7047e-05
4.70484e-05
4.70501e-05
4.70523e-05
4.70549e-05
4.7058e-05
4.70617e-05
4.70659e-05
4.70712e-05
4.70778e-05
4.70859e-05
4.7096e-05
4.71085e-05
4.7124e-05
4.71437e-05
4.7169e-05
4.72021e-05
4.72466e-05
4.73031e-05
4.73777e-05
4.74779e-05
4.76085e-05
4.7771e-05
4.79664e-05
4.81989e-05
4.8471e-05
4.8781e-05
4.91378e-05
4.95518e-05
5.00087e-05
5.05335e-05
5.1175e-05
5.19968e-05
5.30223e-05
5.41925e-05
5.53697e-05
5.64037e-05
5.73408e-05
5.88347e-05
6.33449e-05
7.87578e-05
4.70415e-05
4.70424e-05
4.70433e-05
4.70439e-05
4.70445e-05
4.70451e-05
4.70459e-05
4.7047e-05
4.70484e-05
4.70501e-05
4.70523e-05
4.70549e-05
4.7058e-05
4.70617e-05
4.7066e-05
4.70712e-05
4.70778e-05
4.70859e-05
4.70959e-05
4.71083e-05
4.71238e-05
4.71432e-05
4.71682e-05
4.72008e-05
4.72446e-05
4.72995e-05
4.7372e-05
4.74697e-05
4.75973e-05
4.77568e-05
4.79493e-05
4.81791e-05
4.84491e-05
4.87575e-05
4.91132e-05
4.95271e-05
4.99846e-05
5.05109e-05
5.11549e-05
5.19807e-05
5.30124e-05
5.41713e-05
5.53383e-05
5.63631e-05
5.72885e-05
5.87502e-05
6.31515e-05
7.82165e-05
4.70414e-05
4.70424e-05
4.70433e-05
4.70439e-05
4.70444e-05
4.70451e-05
4.70459e-05
4.7047e-05
4.70484e-05
4.70501e-05
4.70523e-05
4.70549e-05
4.7058e-05
4.70617e-05
4.7066e-05
4.70712e-05
4.70778e-05
4.70859e-05
4.70959e-05
4.71082e-05
4.71235e-05
4.71428e-05
4.71675e-05
4.71996e-05
4.72425e-05
4.72961e-05
4.73665e-05
4.74617e-05
4.75865e-05
4.77431e-05
4.7933e-05
4.81604e-05
4.84284e-05
4.87354e-05
4.90904e-05
4.95045e-05
4.9963e-05
5.04912e-05
5.11383e-05
5.1969e-05
5.29978e-05
5.41452e-05
5.53009e-05
5.63159e-05
5.72298e-05
5.8661e-05
6.29596e-05
7.76902e-05
4.70414e-05
4.70423e-05
4.70433e-05
4.70439e-05
4.70444e-05
4.70451e-05
4.70459e-05
4.7047e-05
4.70484e-05
4.70501e-05
4.70523e-05
4.70549e-05
4.7058e-05
4.70617e-05
4.7066e-05
4.70713e-05
4.70778e-05
4.70859e-05
4.70958e-05
4.71081e-05
4.71233e-05
4.71424e-05
4.71668e-05
4.71984e-05
4.72405e-05
4.72928e-05
4.73613e-05
4.7454e-05
4.75762e-05
4.77301e-05
4.79174e-05
4.81427e-05
4.84091e-05
4.8715e-05
4.90696e-05
4.94842e-05
4.99441e-05
5.04747e-05
5.11254e-05
5.19625e-05
5.29789e-05
5.41138e-05
5.52572e-05
5.62618e-05
5.71641e-05
5.85673e-05
6.27693e-05
7.71745e-05
4.70414e-05
4.70423e-05
4.70433e-05
4.70439e-05
4.70444e-05
4.70451e-05
4.70459e-05
4.7047e-05
4.70484e-05
4.70501e-05
4.70522e-05
4.70549e-05
4.7058e-05
4.70617e-05
4.7066e-05
4.70713e-05
4.70778e-05
4.70859e-05
4.70958e-05
4.7108e-05
4.71231e-05
4.7142e-05
4.71661e-05
4.71973e-05
4.72385e-05
4.72896e-05
4.73563e-05
4.74467e-05
4.75664e-05
4.77178e-05
4.79029e-05
4.81263e-05
4.83913e-05
4.86964e-05
4.90508e-05
4.94661e-05
4.99278e-05
5.04613e-05
5.11163e-05
5.19512e-05
5.29556e-05
5.4077e-05
5.5207e-05
5.62006e-05
5.70912e-05
5.84681e-05
6.25772e-05
7.66616e-05
4.70414e-05
4.70423e-05
4.70433e-05
4.70439e-05
4.70444e-05
4.70451e-05
4.70459e-05
4.7047e-05
4.70484e-05
4.70501e-05
4.70522e-05
4.70549e-05
4.7058e-05
4.70617e-05
4.7066e-05
4.70713e-05
4.70778e-05
4.70859e-05
4.70957e-05
4.71079e-05
4.71229e-05
4.71416e-05
4.71654e-05
4.71962e-05
4.72367e-05
4.72865e-05
4.73516e-05
4.74399e-05
4.75572e-05
4.77064e-05
4.78894e-05
4.81112e-05
4.83751e-05
4.86796e-05
4.9034e-05
4.94505e-05
4.99142e-05
5.0451e-05
5.11119e-05
5.19362e-05
5.29276e-05
5.40345e-05
5.51501e-05
5.61321e-05
5.7011e-05
5.83636e-05
6.23839e-05
7.61558e-05
4.70414e-05
4.70423e-05
4.70433e-05
4.70439e-05
4.70444e-05
4.70451e-05
4.70459e-05
4.7047e-05
4.70484e-05
4.70501e-05
4.70522e-05
4.70549e-05
4.7058e-05
4.70617e-05
4.70661e-05
4.70713e-05
4.70779e-05
4.70859e-05
4.70957e-05
4.71078e-05
4.71227e-05
4.71412e-05
4.71648e-05
4.71951e-05
4.72349e-05
4.72836e-05
4.73472e-05
4.74336e-05
4.75489e-05
4.7696e-05
4.78772e-05
4.80975e-05
4.83605e-05
4.86647e-05
4.90195e-05
4.94372e-05
4.99034e-05
5.04439e-05
5.11039e-05
5.19171e-05
5.28948e-05
5.39861e-05
5.50865e-05
5.60561e-05
5.69235e-05
5.8254e-05
6.21887e-05
7.56579e-05
4.70414e-05
4.70423e-05
4.70433e-05
4.70439e-05
4.70444e-05
4.70451e-05
4.70459e-05
4.7047e-05
4.70484e-05
4.70501e-05
4.70522e-05
4.70549e-05
4.7058e-05
4.70617e-05
4.70661e-05
4.70714e-05
4.70779e-05
4.70859e-05
4.70957e-05
4.71077e-05
4.71225e-05
4.71409e-05
4.71642e-05
4.71941e-05
4.72333e-05
4.72809e-05
4.73432e-05
4.7428e-05
4.75414e-05
4.76867e-05
4.78664e-05
4.80855e-05
4.83478e-05
4.86518e-05
4.90071e-05
4.94264e-05
4.98954e-05
5.04401e-05
5.10925e-05
5.18941e-05
5.28572e-05
5.39316e-05
5.50162e-05
5.59725e-05
5.68289e-05
5.81387e-05
6.19896e-05
7.51593e-05
4.70414e-05
4.70423e-05
4.70433e-05
4.70439e-05
4.70444e-05
4.70451e-05
4.70459e-05
4.7047e-05
4.70484e-05
4.70501e-05
4.70522e-05
4.70549e-05
4.7058e-05
4.70617e-05
4.70661e-05
4.70714e-05
4.70779e-05
4.70859e-05
4.70957e-05
4.71077e-05
4.71224e-05
4.71406e-05
4.71637e-05
4.71932e-05
4.72317e-05
4.72785e-05
4.73396e-05
4.74229e-05
4.75347e-05
4.76786e-05
4.78569e-05
4.80751e-05
4.83369e-05
4.86409e-05
4.8997e-05
4.94181e-05
4.989e-05
5.04344e-05
5.10778e-05
5.18668e-05
5.28144e-05
5.38711e-05
5.49389e-05
5.58811e-05
5.67267e-05
5.80145e-05
6.17828e-05
7.46594e-05
4.70414e-05
4.70423e-05
4.70433e-05
4.70439e-05
4.70444e-05
4.70451e-05
4.70459e-05
4.7047e-05
4.70484e-05
4.70501e-05
4.70522e-05
4.70549e-05
4.7058e-05
4.70618e-05
4.70662e-05
4.70715e-05
4.7078e-05
4.7086e-05
4.70957e-05
4.71077e-05
4.71223e-05
4.71404e-05
4.71633e-05
4.71925e-05
4.72304e-05
4.72763e-05
4.73364e-05
4.74185e-05
4.75289e-05
4.76716e-05
4.7849e-05
4.80663e-05
4.83278e-05
4.8632e-05
4.8989e-05
4.94121e-05
4.98874e-05
5.04259e-05
5.10595e-05
5.18352e-05
5.27664e-05
5.38045e-05
5.48544e-05
5.57827e-05
5.66165e-05
5.78849e-05
6.15755e-05
7.41614e-05
4.70414e-05
4.70423e-05
4.70433e-05
4.70439e-05
4.70444e-05
4.70451e-05
4.70459e-05
4.7047e-05
4.70484e-05
4.70501e-05
4.70522e-05
4.70549e-05
4.7058e-05
4.70618e-05
4.70662e-05
4.70715e-05
4.7078e-05
4.7086e-05
4.70958e-05
4.71076e-05
4.71222e-05
4.71402e-05
4.71629e-05
4.71918e-05
4.72293e-05
4.72745e-05
4.73337e-05
4.74148e-05
4.7524e-05
4.76657e-05
4.78424e-05
4.80594e-05
4.83206e-05
4.86251e-05
4.89831e-05
4.94085e-05
4.98832e-05
5.04144e-05
5.10376e-05
5.17994e-05
5.2713e-05
5.37317e-05
5.47628e-05
5.56761e-05
5.64989e-05
5.77422e-05
6.13501e-05
7.36395e-05
4.70414e-05
4.70423e-05
4.70433e-05
4.70439e-05
4.70444e-05
4.70451e-05
4.70459e-05
4.7047e-05
4.70484e-05
4.70501e-05
4.70522e-05
4.70549e-05
4.7058e-05
4.70618e-05
4.70663e-05
4.70716e-05
4.70781e-05
4.70861e-05
4.70958e-05
4.71077e-05
4.71222e-05
4.71401e-05
4.71626e-05
4.71913e-05
4.72283e-05
4.72729e-05
4.73315e-05
4.74118e-05
4.75201e-05
4.7661e-05
4.78373e-05
4.8054e-05
4.83154e-05
4.86202e-05
4.89793e-05
4.94075e-05
4.98766e-05
5.04e-05
5.10122e-05
5.17593e-05
5.26545e-05
5.36529e-05
5.46644e-05
5.55631e-05
5.63732e-05
5.75948e-05
6.11205e-05
7.31021e-05
4.70414e-05
4.70423e-05
4.70433e-05
4.70439e-05
4.70444e-05
4.70451e-05
4.70459e-05
4.7047e-05
4.70483e-05
4.70501e-05
4.70522e-05
4.70549e-05
4.70581e-05
4.70618e-05
4.70663e-05
4.70717e-05
4.70782e-05
4.70862e-05
4.70959e-05
4.71077e-05
4.71222e-05
4.714e-05
4.71624e-05
4.71909e-05
4.72276e-05
4.72717e-05
4.73297e-05
4.74095e-05
4.75172e-05
4.76575e-05
4.78335e-05
4.80502e-05
4.83119e-05
4.86173e-05
4.89775e-05
4.94042e-05
4.98675e-05
5.03827e-05
5.09833e-05
5.1715e-05
5.2591e-05
5.35684e-05
5.45597e-05
5.54427e-05
5.62409e-05
5.74343e-05
6.08674e-05
7.25234e-05
4.70414e-05
4.70423e-05
4.70433e-05
4.70438e-05
4.70444e-05
4.70451e-05
4.70459e-05
4.7047e-05
4.70483e-05
4.70501e-05
4.70522e-05
4.70549e-05
4.70581e-05
4.70619e-05
4.70664e-05
4.70717e-05
4.70783e-05
4.70863e-05
4.7096e-05
4.71078e-05
4.71223e-05
4.714e-05
4.71623e-05
4.71907e-05
4.72271e-05
4.72708e-05
4.73285e-05
4.74079e-05
4.75153e-05
4.76552e-05
4.78311e-05
4.8048e-05
4.83102e-05
4.86164e-05
4.89765e-05
4.9399e-05
4.9856e-05
5.03625e-05
5.09511e-05
5.16667e-05
5.25228e-05
5.34783e-05
5.44489e-05
5.53164e-05
5.61018e-05
5.72697e-05
6.06082e-05
7.19287e-05
4.70413e-05
4.70423e-05
4.70433e-05
4.70438e-05
4.70444e-05
4.70451e-05
4.70459e-05
4.7047e-05
4.70483e-05
4.70501e-05
4.70522e-05
4.70549e-05
4.70581e-05
4.70619e-05
4.70665e-05
4.70718e-05
4.70784e-05
4.70864e-05
4.70961e-05
4.7108e-05
4.71224e-05
4.71402e-05
4.71624e-05
4.71906e-05
4.72269e-05
4.72703e-05
4.73278e-05
4.74071e-05
4.75143e-05
4.7654e-05
4.783e-05
4.80474e-05
4.83101e-05
4.86174e-05
4.89741e-05
4.93919e-05
4.98422e-05
5.03395e-05
5.09156e-05
5.16145e-05
5.245e-05
5.3383e-05
5.43327e-05
5.51834e-05
5.59571e-05
5.70924e-05
6.03253e-05
7.12907e-05
4.70413e-05
4.70423e-05
4.70433e-05
4.70438e-05
4.70444e-05
4.70451e-05
4.70459e-05
4.7047e-05
4.70483e-05
4.70501e-05
4.70523e-05
4.70549e-05
4.70581e-05
4.7062e-05
4.70665e-05
4.70719e-05
4.70785e-05
4.70866e-05
4.70963e-05
4.71082e-05
4.71226e-05
4.71403e-05
4.71626e-05
4.71908e-05
4.72269e-05
4.72702e-05
4.73276e-05
4.7407e-05
4.75142e-05
4.7654e-05
4.78302e-05
4.80482e-05
4.83117e-05
4.8617e-05
4.89704e-05
4.93831e-05
4.98262e-05
5.0314e-05
5.0877e-05
5.15587e-05
5.23731e-05
5.32828e-05
5.42112e-05
5.50455e-05
5.58066e-05
5.69124e-05
6.00348e-05
7.06278e-05
4.70413e-05
4.70423e-05
4.70432e-05
4.70438e-05
4.70444e-05
4.7045e-05
4.70459e-05
4.7047e-05
4.70483e-05
4.70501e-05
4.70523e-05
4.70549e-05
4.70581e-05
4.7062e-05
4.70666e-05
4.7072e-05
4.70787e-05
4.70867e-05
4.70965e-05
4.71084e-05
4.71228e-05
4.71406e-05
4.71629e-05
4.71911e-05
4.72272e-05
4.72704e-05
4.7328e-05
4.74076e-05
4.75151e-05
4.76551e-05
4.78316e-05
4.80502e-05
4.83123e-05
4.86155e-05
4.89654e-05
4.93724e-05
4.98081e-05
5.0286e-05
5.08357e-05
5.14996e-05
5.22923e-05
5.31783e-05
5.40849e-05
5.49028e-05
5.56507e-05
5.67253e-05
5.97302e-05
6.9925e-05
4.70413e-05
4.70423e-05
4.70432e-05
4.70438e-05
4.70444e-05
4.7045e-05
4.70459e-05
4.7047e-05
4.70483e-05
4.70501e-05
4.70523e-05
4.70549e-05
4.70582e-05
4.7062e-05
4.70667e-05
4.70722e-05
4.70788e-05
4.70869e-05
4.70967e-05
4.71087e-05
4.71232e-05
4.7141e-05
4.71633e-05
4.71916e-05
4.72278e-05
4.72711e-05
4.73289e-05
4.74088e-05
4.75167e-05
4.7657e-05
4.78341e-05
4.80516e-05
4.8312e-05
4.86129e-05
4.89592e-05
4.93602e-05
4.9788e-05
5.02558e-05
5.07918e-05
5.14377e-05
5.22081e-05
5.30702e-05
5.39544e-05
5.47563e-05
5.54902e-05
5.65323e-05
5.94145e-05
6.91909e-05
4.70413e-05
4.70423e-05
4.70432e-05
4.70438e-05
4.70444e-05
4.7045e-05
4.70459e-05
4.70469e-05
4.70483e-05
4.70501e-05
4.70523e-05
4.7055e-05
4.70582e-05
4.70621e-05
4.70668e-05
4.70723e-05
4.7079e-05
4.70871e-05
4.7097e-05
4.7109e-05
4.71236e-05
4.71415e-05
4.7164e-05
4.71924e-05
4.72286e-05
4.72721e-05
4.73302e-05
4.74106e-05
4.7519e-05
4.76596e-05
4.78361e-05
4.80525e-05
4.83111e-05
4.86096e-05
4.89519e-05
4.93465e-05
4.97663e-05
5.02237e-05
5.07457e-05
5.13733e-05
5.21212e-05
5.29592e-05
5.38208e-05
5.46069e-05
5.53261e-05
5.63344e-05
5.90878e-05
6.84225e-05
4.70413e-05
4.70423e-05
4.70432e-05
4.70438e-05
4.70444e-05
4.7045e-05
4.70459e-05
4.70469e-05
4.70483e-05
4.70501e-05
4.70523e-05
4.7055e-05
4.70582e-05
4.70622e-05
4.70668e-05
4.70724e-05
4.70792e-05
4.70874e-05
4.70973e-05
4.71094e-05
4.7124e-05
4.71421e-05
4.71647e-05
4.71934e-05
4.72297e-05
4.72734e-05
4.7332e-05
4.74128e-05
4.75214e-05
4.76619e-05
4.7838e-05
4.80532e-05
4.83097e-05
4.86055e-05
4.89437e-05
4.93316e-05
4.9743e-05
5.019e-05
5.06979e-05
5.1307e-05
5.20321e-05
5.28462e-05
5.36849e-05
5.44556e-05
5.51598e-05
5.61329e-05
5.87524e-05
6.7624e-05
4.70413e-05
4.70423e-05
4.70432e-05
4.70438e-05
4.70444e-05
4.7045e-05
4.70459e-05
4.70469e-05
4.70483e-05
4.70501e-05
4.70523e-05
4.7055e-05
4.70583e-05
4.70622e-05
4.70669e-05
4.70726e-05
4.70794e-05
4.70876e-05
4.70976e-05
4.71098e-05
4.71246e-05
4.71429e-05
4.71657e-05
4.71945e-05
4.72311e-05
4.72751e-05
4.73339e-05
4.74149e-05
4.75236e-05
4.76642e-05
4.78399e-05
4.80538e-05
4.83081e-05
4.8601e-05
4.89348e-05
4.93157e-05
4.97186e-05
5.01551e-05
5.06488e-05
5.12394e-05
5.19418e-05
5.2732e-05
5.3548e-05
5.43038e-05
5.4993e-05
5.59299e-05
5.84112e-05
6.68043e-05
4.70413e-05
4.70423e-05
4.70432e-05
4.70438e-05
4.70444e-05
4.7045e-05
4.70459e-05
4.70469e-05
4.70483e-05
4.70501e-05
4.70523e-05
4.7055e-05
4.70583e-05
4.70623e-05
4.7067e-05
4.70728e-05
4.70796e-05
4.70879e-05
4.7098e-05
4.71103e-05
4.71253e-05
4.71437e-05
4.71668e-05
4.7196e-05
4.72327e-05
4.72767e-05
4.73357e-05
4.74169e-05
4.75259e-05
4.76665e-05
4.78419e-05
4.80546e-05
4.83065e-05
4.85964e-05
4.89255e-05
4.9299e-05
4.96933e-05
5.01194e-05
5.05989e-05
5.11713e-05
5.1851e-05
5.26176e-05
5.34113e-05
5.41526e-05
5.48269e-05
5.57264e-05
5.80624e-05
6.59499e-05
4.70413e-05
4.70423e-05
4.70432e-05
4.70438e-05
4.70444e-05
4.7045e-05
4.70459e-05
4.70469e-05
4.70483e-05
4.70501e-05
4.70523e-05
4.7055e-05
4.70583e-05
4.70623e-05
4.70671e-05
4.70729e-05
4.70798e-05
4.70882e-05
4.70984e-05
4.71109e-05
4.7126e-05
4.71447e-05
4.71681e-05
4.71976e-05