/*--------------------------------*- C++ -*----------------------------------*\
  =========                 |
  \\      /  F ield         | OpenFOAM: The Open Source CFD Toolbox
   \\    /   O peration     | Website:  https://openfoam.org
    \\  /    A nd           | Version:  10
     \\/     M anipulation  |
\*---------------------------------------------------------------------------*/
FoamFile
{
    format      ascii;
    class       volScalarField;
    location    "5";
    object      p;
}
// * * * * * * * * * * * * * * * * * * * * * * * * * * * * * * * * * * * * * //

dimensions      [0 2 -2 0 0 0 0];

internalField   nonuniform List<scalar> 
38016
(
22.6915
19.0608
20.7558
21.5886
22.9956
24.5661
26.9547
29.9
34.0199
39.5096
46.3479
54.982
65.5622
77.9056
92.005
108.189
126.278
144.813
165.322
187.346
210.433
234.702
274.913
300.067
385.17
522.939
783.563
1117.74
1536.15
2012.59
2519.28
3037.79
3551.71
4046.97
4514.14
4947
5341.69
5695.86
6008.51
6280.72
6514.75
6713.48
6880.82
7020.62
7136.8
7233.3
7292.69
7353.73
22.9777
19.2495
20.9313
21.7437
23.1237
24.6675
27.0225
29.9326
34.0146
39.463
46.2605
54.8526
65.3906
77.6825
91.7234
107.823
125.79
144.182
164.498
186.263
209.05
233.009
272.782
297.883
381.82
520.542
783.626
1122.53
1547.51
2032.01
2547.92
3076.32
3600.4
4105.91
4583.08
5025.54
5429.29
5791.87
6112.33
6391.65
6632.07
6836.5
7008.8
7152.86
7272.63
7371.37
7430.63
7494.25
23.2629
19.437
21.1057
21.8979
23.2512
24.7682
27.09
29.9654
34.0096
39.4168
46.1742
54.7244
65.2202
77.4605
91.4426
107.456
125.299
143.544
163.655
185.137
207.574
231.126
270.172
294.674
378.775
518.569
783.824
1127.06
1557.93
2049.65
2573.81
3111.09
3644.27
4158.9
4644.9
5095.72
5507.22
5876.85
6203.69
6488.69
6734.09
6942.88
7118.92
7266.2
7388.75
7489.1
7551.66
7623.2
23.5508
19.6262
21.2813
22.0531
23.3794
24.8697
27.1579
29.9983
34.0043
39.3697
46.0861
54.5934
65.0452
77.2319
91.1522
107.076
124.788
142.881
162.78
183.972
206.053
229.212
267.533
291.619
375.225
516.091
783.367
1130.9
1567.46
2066.06
2597.95
3143.33
3684.61
4207.12
4700.5
5158.08
5575.57
5950.39
6281.72
6570.49
6819
7030.38
7208.58
7357.76
7482.1
7583.88
7653.15
7735.75
23.8371
19.8141
21.4559
22.2074
23.5068
24.9703
27.2251
30.0309
33.9986
39.3223
45.9979
54.4623
64.8702
77.0031
90.8614
106.694
124.274
142.216
161.899
182.795
204.508
227.265
264.78
288.376
371.181
512.889
781.741
1133.2
1575
2079.97
2619.06
3171.98
3720.71
4250.39
4750.37
5213.83
5636.38
6015.39
6350.16
6641.68
6892.34
7105.48
7285.19
7435.92
7562.07
7666.34
7744.56
7837.31
24.1262
20.0038
21.6318
22.3628
23.6351
25.0719
27.2931
30.0643
33.9937
39.2756
45.9103
54.3318
64.6953
76.7741
90.5698
106.31
123.757
141.545
161.009
181.604
202.942
225.29
261.944
285.021
366.803
509.212
779.321
1134.44
1581.12
2092.04
2637.83
3197.7
3753.2
4289.25
4794.92
5263.25
5689.74
6071.79
6408.8
6701.88
6953.61
7167.56
7348.06
7499.88
7627.74
7735.16
7822.4
7922.68
24.4136
20.1921
21.8065
22.5173
23.7627
25.1726
27.3603
30.0972
33.9883
39.2282
45.8223
54.2007
64.5196
76.5442
90.2769
105.925
123.236
140.871
160.112
180.402
201.357
223.292
259.036
281.574
362.145
505.116
776.164
1134.66
1585.83
2102.22
2654.16
3220.31
3781.8
4323.32
4833.66
5305.74
5734.97
6118.79
6456.78
6750.23
7001.95
7215.79
7396.39
7548.82
7678.22
7788.81
7883.97
7989.12
24.7037
20.3823
21.9826
22.6728
23.8911
25.2744
27.4284
30.131
33.9835
39.1817
45.735
54.0703
64.3444
76.3145
89.9837
105.538
122.712
140.193
159.209
179.192
199.756
221.273
256.064
278.036
357.223
500.594
772.255
1133.8
1589
2110.33
2667.78
3239.46
3806.06
4352.04
4865.93
5340.51
5771.17
6155.45
6493.13
6785.74
7036.38
7249.24
7429.28
7581.87
7712.49
7825.82
7927.37
8035.27
24.9923
20.5713
22.1575
22.8275
24.0188
25.3754
27.4957
30.1642
33.9782
39.1345
45.6472
53.9394
64.1685
76.0841
89.6895
105.15
122.185
139.513
158.301
177.972
198.139
219.232
253.028
274.405
352.03
495.621
767.548
1131.76
1590.52
2116.18
2678.44
3254.82
3825.54
4374.87
4891.08
5366.85
5797.58
6180.97
6517.04
6807.67
7056.26
7267.37
7446.27
7598.58
7730.01
7845.44
7951.83
8060.86
25.2836
20.7621
22.3338
22.9833
24.1473
25.4773
27.5638
30.1983
33.9737
39.0881
45.5601
53.8093
63.9931
75.8541
89.3953
104.761
121.657
138.83
157.388
176.745
196.508
217.17
249.933
270.676
346.569
490.174
762.012
1128.48
1590.26
2119.6
2685.9
3266.06
3839.87
4391.35
4908.59
5384.19
5813.61
6194.78
6528.03
6815.62
7061.33
7270.06
7447.35
7599.01
7730.8
7847.58
7957.39
8066.33
25.5733
20.9516
22.5089
23.1382
24.2751
25.5784
27.6312
30.2318
33.9686
39.041
45.4726
53.6788
63.8173
75.6236
89.1004
104.371
121.126
138.145
156.471
175.51
194.864
215.086
246.779
266.848
340.835
484.238
755.608
1123.88
1588.1
2120.41
2689.91
3272.87
3848.65
4401.03
4917.96
5392.01
5818.76
6196.43
6525.77
6809.42
7051.57
7257.44
7432.77
7583.43
7715.12
7832.53
7944.5
8052.46
25.8659
21.1429
22.6854
23.2941
24.4037
25.6806
27.6994
30.2661
33.9643
38.9948
45.3858
53.549
63.6419
75.3938
88.8058
103.982
120.595
137.46
155.551
174.271
193.209
212.983
243.574
262.923
334.837
477.796
748.307
1117.88
1583.93
2118.45
2690.24
3274.96
3851.52
4403.49
4918.75
5389.86
5812.63
6185.66
6510.12
6789.11
7027.2
7229.87
7402.95
7552.27
7683.39
7800.74
7913.8
8020.09
26.1567
21.3331
22.8608
23.4491
24.5316
25.7818
27.7668
30.2998
33.9594
38.948
45.2985
53.419
63.4663
75.1637
88.511
103.592
120.063
136.774
154.629
173.028
191.544
210.863
240.319
258.903
328.575
470.834
740.072
1110.42
1577.62
2113.52
2686.65
3272.01
3848.11
4398.33
4910.55
5377.39
5794.96
6162.34
6481.13
6754.91
6988.59
7187.81
7358.39
7506.04
7636.09
7752.78
7866
7970.13
26.4505
21.525
23.0375
23.6053
24.6604
25.8841
27.835
30.3344
33.9552
38.9019
45.212
53.2897
63.2913
74.9346
88.217
103.203
119.531
136.088
153.707
171.783
189.874
208.728
237.024
254.792
322.062
463.344
730.882
1101.43
1569.06
2105.47
2678.89
3263.73
3838.09
4385.21
4893.04
5354.34
5765.64
6126.48
6439.01
6707.19
6936.22
7131.78
7299.62
7445.26
7573.8
7689.25
7801.86
7903.47
26.7426
21.7157
23.2131
23.7605
24.7884
25.9856
27.9025
30.3683
33.9505
38.8552
45.125
53.1602
63.1162
74.7055
87.9233
102.814
118.999
135.404
152.786
170.537
188.2
206.582
233.693
250.599
315.303
455.321
720.702
1090.82
1558.11
2094.1
2666.74
3249.84
3821.14
4363.83
4865.96
5320.57
5724.65
6078.28
6384.08
6646.42
6870.62
7062.35
7227.2
7370.47
7497.11
7610.84
7722.23
7821.09
27.0376
21.9083
23.3901
23.9168
24.9173
26.088
27.9708
30.403
33.9465
38.8094
45.0388
53.0316
62.9419
74.4777
87.631
102.427
118.47
134.723
151.867
169.295
186.527
204.429
230.337
246.332
308.319
446.761
709.519
1078.55
1544.68
2079.25
2649.98
3230.09
3797.02
4333.95
4829.16
5276.05
5672.12
6018
6316.79
6573.1
6792.33
6980.04
7141.65
7282.25
7406.58
7518.21
7627.88
7723.82
27.3309
22.0996
23.5658
24.0722
25.0454
26.1895
28.0383
30.4371
33.9418
38.7628
44.9522
52.9027
62.7675
74.2503
87.3396
102.042
117.943
134.046
150.953
168.057
184.858
202.276
226.964
242.003
301.122
437.671
697.31
1064.55
1528.65
2060.77
2628.4
3204.24
3765.5
4295.41
4782.59
5220.85
5608.28
5946.04
6237.59
6487.76
6701.89
6885.4
7043.5
7181.12
7302.82
7412.03
7519.59
7612.5
27.6272
22.2927
23.7431
24.2286
25.1744
26.2921
28.1066
30.4719
33.9379
38.7171
44.8662
52.7748
62.5942
74.0246
87.0505
101.661
117.42
133.375
150.047
166.829
183.199
200.129
223.588
237.627
293.74
428.059
684.071
1048.77
1509.92
2038.51
2601.83
3172.11
3726.42
4248.12
4726.26
5155.16
5533.45
5862.82
6147.02
6390.93
6599.82
6778.93
6933.29
7067.65
7186.46
7293
7398.14
7487.98
27.9219
22.4847
23.9191
24.3842
25.3026
26.3938
28.1742
30.506
33.9334
38.6706
44.7798
52.6466
62.421
73.7998
86.7632
101.282
116.902
132.711
149.15
165.612
181.556
197.995
220.22
233.221
286.197
417.944
669.797
1031.17
1488.4
2012.35
2570.11
3133.55
3679.68
4192.08
4660.3
5079.23
5448.04
5768.84
6045.58
6283.14
6486.63
6661.15
6811.53
6942.42
7058.13
7161.8
7264.31
7351.07
28.2196
22.6784
24.0966
24.5408
25.4317
26.4964
28.2424
30.5409
33.9295
38.6249
44.6941
52.5194
62.249
73.577
86.4789
100.908
116.391
132.057
148.265
164.413
179.934
195.882
216.878
228.806
278.53
407.349
654.501
1011.72
1464.04
1982.18
2533.13
3088.47
3625.24
4127.36
4584.92
4993.4
5352.49
5664.6
5933.8
6164.89
6362.84
6532.57
6678.81
6806.03
6918.46
7019.13
7118.84
7202.53
28.5156
22.871
24.2728
24.6966
25.56
26.5981
28.3099
30.575
33.9249
38.5783
44.6078
52.392
62.0773
73.3556
86.1974
100.539
115.887
131.414
147.396
163.234
178.34
193.8
213.575
224.405
270.775
396.308
638.195
990.399
1436.77
1947.92
2490.82
3036.82
3563.15
4054.12
4500.41
4898.09
5247.26
5550.59
5812.17
6036.68
6228.95
6393.75
6535.67
6659.11
6768.16
6865.74
6962.55
7043.22
28.8146
23.0653
24.4506
24.8533
25.6892
26.7008
28.3781
30.6098
33.9208
38.5324
44.5221
52.2656
61.907
73.1367
85.9201
100.177
115.393
130.786
146.546
162.082
176.784
191.761
210.334
220.047
262.98
384.864
620.917
967.218
1406.56
1909.53
2443.12
2978.62
3493.51
3972.56
4407.1
4793.71
5132.85
5427.34
5681.21
5899.02
6085.48
6245.21
6382.73
6502.28
6607.88
6702.32
6796.16
6873.85
29.112
23.2586
24.6271
25.0092
25.8176
26.8026
28.4456
30.6438
33.916
38.4857
44.4358
52.1389
61.737
72.9197
85.6466
99.822
114.91
130.173
145.719
160.96
175.271
189.774
207.173
215.763
255.192
373.065
602.7
942.185
1373.41
1866.98
2390.05
2913.93
3416.47
3882.98
4305.37
4680.73
5009.76
5295.32
5541.4
5752.41
5932.95
6087.53
6220.57
6336.21
6438.36
6529.69
6620.58
6695.4
29.4126
23.4536
24.8051
25.1661
25.9469
26.9053
28.5136
30.6784
33.9117
38.4393
44.35
52.0131
61.5687
72.7058
85.3786
99.4756
114.441
129.58
144.919
159.876
173.812
187.855
204.116
211.586
247.473
360.976
583.608
915.34
1337.33
1820.31
2331.66
2842.87
3332.26
3785.69
4195.66
4559.63
4878.47
5155.05
5393.23
5597.34
5771.87
5921.24
6049.77
6161.49
6260.21
6348.48
6436.5
6508.63
29.7115
23.6476
24.9818
25.3222
26.0754
27.007
28.5808
30.7121
33.9064
38.392
44.2633
51.8869
61.4008
72.4942
85.1157
99.1385
113.986
129.009
144.15
158.836
172.415
186.015
201.184
207.553
239.881
348.665
563.703
886.732
1298.36
1769.56
2268.04
2765.62
3241.14
3681.07
4078.4
4430.89
4739.49
5007.02
5237.24
5434.37
5602.81
5746.91
5870.88
5978.67
6073.95
6159.18
6244.33
6313.87
30.0136
23.8433
25.1602
25.4792
26.2047
27.1096
28.6486
30.7462
33.9014
38.3449
44.177
51.7614
61.2346
72.2863
84.8596
98.8128
113.55
128.464
143.417
157.847
171.094
184.271
198.407
203.705
232.487
336.216
543.075
856.442
1256.57
1714.82
2199.35
2682.4
3143.45
3569.52
3954.05
4294.98
4593.31
4851.75
5073.96
5264.07
5426.39
5565.2
5684.59
5788.42
5880.22
5962.37
6044.57
6111.41
30.3141
24.038
25.3371
25.6354
26.3332
27.2113
28.7154
30.7794
33.8954
38.2966
44.0895
51.6354
61.0689
72.0813
84.6101
98.4991
113.133
127.948
142.727
156.917
169.858
182.64
195.808
200.084
225.36
323.713
521.812
824.557
1212.07
1656.23
2125.75
2593.47
3039.52
3451.45
3823.05
4152.39
4440.42
4689.77
4903.97
5087.08
5243.31
5376.86
5491.71
5591.61
5679.97
5759.07
5838.31
5902.48
30.6179
24.2343
25.5158
25.7925
26.4626
27.3137
28.7828
30.8129
33.8895
38.2483
44.0021
51.5099
60.9049
71.8804
84.3687
98.1996
112.74
127.465
142.084
156.056
168.721
181.139
193.419
196.733
218.577
311.255
500.025
791.193
1164.99
1593.93
2047.47
2499.13
2929.7
3327.26
3685.83
4003.55
4281.3
4521.59
4727.84
4904.02
5054.24
5182.62
5293.02
5389.04
5474
5550.04
5626.32
5687.87
30.92
24.4298
25.693
25.9487
26.591
27.4151
28.8491
30.8452
33.8822
38.1985
43.9133
51.3836
60.7413
71.6828
84.1353
97.9149
112.371
127.02
141.494
155.27
167.695
179.788
191.267
193.696
212.209
298.937
477.819
756.469
1115.44
1528.11
1964.74
2399.67
2814.37
3197.35
3542.81
3848.9
4116.4
4347.68
4546.09
4715.47
4859.85
4983.22
5089.33
5181.66
5263.39
5336.55
5410.05
5469.17
31.2255
24.6269
25.8719
26.106
26.7203
27.5172
28.9159
30.8777
33.8749
38.1483
43.824
51.2573
60.5791
71.4896
83.9113
97.6474
112.03
126.616
140.965
154.572
166.796
178.606
189.385
191.02
206.334
286.866
455.319
720.529
1063.62
1458.97
1877.83
2295.42
2693.89
3062.11
3394.39
3688.84
3946.13
4168.51
4359.21
4521.95
4660.67
4779.2
4881.18
4969.96
5048.58
5119
5189.84
5246.65
31.5293
24.8231
26.0494
26.2623
26.8487
27.6183
28.9815
30.9089
33.8659
38.0962
43.7329
51.1296
60.4171
71.2999
83.6966
97.3977
111.72
126.258
140.504
153.971
166.037
177.615
187.802
188.747
201.016
275.142
432.64
683.51
1009.69
1386.73
1787.02
2186.72
2568.61
2921.9
3240.92
3523.73
3770.88
3984.48
4167.65
4323.98
4457.27
4571.2
4669.29
4754.74
4830.48
4898.35
4966.72
5021.43
31.8367
25.021
26.2286
26.4196
26.9779
27.72
29.0474
30.9401
33.8566
38.0433
43.6408
51.0015
60.2561
71.1149
83.4927
97.168
111.445
125.951
140.117
153.479
165.435
176.837
186.55
186.925
196.322
263.868
409.922
645.566
953.84
1311.64
1692.59
2073.89
2438.9
2777.08
3082.77
3353.95
3591.02
3795.97
3971.77
4121.89
4249.98
4359.58
4454.03
4536.42
4609.53
4675.13
4741.32
4794.2
32.1424
25.2181
26.4063
26.5759
27.1061
27.8205
29.1121
30.9696
33.8453
37.9881
43.5462
50.8713
60.0947
70.9333
83.299
96.9591
111.205
125.699
139.812
153.106
165.005
176.294
185.657
185.59
192.307
253.118
387.289
606.846
896.258
1233.93
1594.84
1957.24
2305.08
2627.99
2920.29
3179.83
3406.88
3603.29
3771.9
3916.02
4039.12
4144.61
4235.67
4315.23
4385.96
4449.53
4513.82
4565.18
32.4517
25.4167
26.5858
26.7332
27.2351
27.9216
29.1769
30.999
33.8332
37.9316
43.4499
50.7398
59.9337
70.7561
83.117
96.773
111.006
125.508
139.599
152.865
164.765
176.01
185.153
184.78
189.021
242.963
364.859
567.531
837.123
1153.83
1494.05
1837.11
2167.49
2474.96
2753.8
3001.7
3218.79
3406.77
3568.32
3706.59
3824.87
3926.4
4014.18
4091.04
4159.48
4221.09
4283.52
4333.35
32.7594
25.6146
26.7638
26.8895
27.363
28.0215
29.2403
31.0265
33.8188
37.872
43.3504
50.6054
59.7714
70.5819
82.9459
96.6101
110.849
125.383
139.484
152.769
164.73
176.006
185.061
184.521
186.493
233.456
342.698
527.801
776.629
1071.52
1390.44
1713.75
2026.41
2318.31
2583.62
2819.9
3027.07
3206.72
3361.31
3493.87
3607.45
3705.15
3789.79
3864.05
3930.29
3990.04
4050.65
4098.94
33.0707
25.8142
26.9436
27.0467
27.4917
28.1218
29.3037
31.0534
33.8032
37.8106
43.2483
50.4686
59.6084
70.4113
82.7867
96.4722
110.738
125.328
139.476
152.83
164.919
176.304
185.403
184.834
184.743
224.64
320.862
487.777
715.036
987.23
1284.21
1587.38
1882.11
2158.32
2410.09
2634.76
2832.09
3003.47
3151.2
3278.08
3387.02
3480.91
3562.42
3634.06
3698.09
3755.93
3814.72
3861.53
33.3805
26.013
27.1218
27.203
27.6193
28.2208
29.3656
31.0782
33.7848
37.7455
43.142
50.3275
59.4428
70.2427
82.6383
96.3592
110.674
125.349
139.584
153.06
165.345
176.922
186.195
185.724
183.761
216.522
299.385
447.495
652.518
901.259
1175.61
1458.18
1734.77
1995.25
2233.5
2446.65
2634.25
2797.47
2938.43
3059.71
3164.04
3254.12
3332.51
3401.54
3463.37
3519.31
3576.29
3621.56
33.694
26.2133
27.3019
27.3601
27.7476
28.3201
29.4272
31.1022
33.7647
37.6778
43.0322
50.1828
59.2749
70.0763
82.5013
96.2725
110.66
125.449
139.815
153.472
166.024
177.878
187.445
187.188
183.523
209.093
278.294
407.032
589.171
813.846
1064.99
1326.45
1584.6
1829.29
2054.12
2255.9
2433.94
2589.18
2723.52
2839.29
2939.05
3025.3
3100.46
3166.72
3226.11
3279.9
3334.74
3378.18
34.0061
26.4131
27.4803
27.5162
27.8747
28.418
29.4871
31.1238
33.7412
37.6056
42.9169
50.0323
59.1025
69.91
82.374
96.2112
110.697
125.633
140.175
154.073
166.967
179.181
189.154
189.201
183.969
202.299
257.566
366.435
525.082
725.069
952.582
1192.59
1431.95
1660.68
1872.17
2062.81
2231.54
2379.08
2507.07
2617.61
2713.06
2795.73
2867.89
2931.59
2988.77
3040.61
3093.56
3135.33
34.3219
26.6144
27.6606
27.6732
28.0025
28.5161
29.5465
31.1442
33.7156
37.53
42.7969
49.8763
58.9258
69.7437
82.2562
96.1757
110.787
125.903
140.672
154.875
168.184
180.84
191.311
191.727
185.021
196.064
237.159
325.71
460.338
635.066
838.442
1056.73
1277.18
1489.8
1687.93
1867.6
2027.3
2167.4
2289.32
2394.91
2486.29
2565.62
2634.98
2696.33
2751.44
2801.48
2852.64
2892.86
34.6363
26.815
27.8393
27.8291
28.1291
28.6126
29.6041
31.1618
33.6861
37.449
42.6702
49.7127
58.7422
69.5748
82.1454
96.1641
110.928
126.261
141.308
155.881
169.677
182.85
193.893
194.704
186.562
190.264
216.987
284.826
394.973
543.973
722.734
918.953
1120.38
1316.87
1501.64
1670.49
1821.41
1954.37
2070.52
2171.47
2259.1
2335.4
2402.28
2461.58
2514.96
2563.53
2613.3
2652.36
34.9546
27.0173
28.0199
27.9858
28.2562
28.7093
29.6611
31.1779
33.6538
37.3637
42.5373
49.5417
58.5515
69.4025
82.0407
96.1755
111.122
126.709
142.087
157.095
171.447
185.202
196.863
198.054
188.457
184.752
196.942
243.749
329.05
451.933
605.641
779.441
961.642
1142.04
1313.5
1471.61
1613.94
1740
1850.6
1947.07
2031.08
2104.41
2168.83
2226.05
2277.63
2324.64
2372.9
2410.61
35.2715
27.219
28.1988
28.1415
28.3821
28.8043
29.7159
31.1909
33.6171
37.2722
42.3962
49.3607
58.3508
69.2236
81.9385
96.2065
111.363
127.242
143.006
158.511
173.482
187.871
200.167
201.672
190.534
179.339
176.87
202.396
262.562
359.033
487.311
638.362
801.119
965.357
1123.58
1271.05
1404.95
1524.36
1629.7
1722.04
1802.76
1873.47
1935.75
1991.18
2041.23
2086.88
2133.83
2170.34
35.5923
27.4222
28.3795
28.2979
28.5084
28.8993
29.77
31.2021
33.5771
37.1754
42.2474
49.17
58.1396
69.0368
81.8369
96.2545
111.651
127.86
144.06
160.124
175.766
190.824
203.736
205.438
192.607
173.818
156.604
160.687
195.462
265.295
367.899
495.889
638.963
786.925
931.906
1068.79
1194.34
1307.19
1407.37
1495.67
1573.22
1641.42
1701.71
1755.55
1804.29
1848.86
1894.85
1930.48
35.9119
27.6249
28.5586
28.4532
28.6335
28.9925
29.8218
31.2099
33.5321
37.0715
42.0889
48.9669
57.9147
68.8382
81.7309
96.3139
111.977
128.553
145.241
161.915
178.271
194.009
207.479
209.205
194.46
167.949
135.941
118.515
127.739
170.798
247.551
352.197
475.333
606.856
738.547
864.86
982.14
1088.55
1183.74
1268.17
1342.72
1408.57
1467.01
1519.35
1566.86
1610.4
1655.45
1690.2
36.2355
27.8291
28.7395
28.6092
28.7589
29.0856
29.8726
31.2155
33.4832
36.9614
41.9212
48.7514
57.6753
68.6259
81.6174
96.3801
112.335
129.314
146.534
163.863
180.957
197.362
211.293
212.814
195.868
161.489
114.676
75.769
59.391
75.6581
126.448
207.49
310.407
425.29
543.574
659.267
768.25
868.231
958.472
1039.07
1110.67
1174.22
1230.85
1281.73
1328.04
1370.58
1414.73
1448.58
36.5578
28.0329
28.9188
28.7641
28.883
29.1768
29.921
31.2175
33.4289
36.8432
41.7421
48.5208
57.418
68.3953
81.4904
96.4451
112.716
130.127
147.918
165.935
183.773
200.802
215.052
216.084
196.592
154.175
92.5848
32.3219
-9.61581
-20.1734
4.62548
61.9615
144.393
242.386
347.099
452.06
552.672
646.203
731.496
808.309
877.008
938.326
993.222
1042.73
1087.91
1129.53
1172.87
1205.89
36.8842
28.2382
29.0999
28.9196
29.0075
29.2679
29.9683
31.217
33.3702
36.718
41.5522
48.2752
57.1416
68.144
81.3452
96.5017
113.107
130.977
149.368
168.09
186.657
204.235
218.619
218.83
196.397
145.759
69.459
-11.932
-79.2454
-116.574
-117.724
-84.1463
-22.4415
58.3687
149.286
243.344
335.453
422.446
502.738
575.741
641.529
700.618
753.782
801.925
846
886.723
929.29
961.473
37.2095
28.443
29.2792
29.074
29.1306
29.3569
30.0131
31.2127
33.3057
36.584
41.3496
48.0118
56.8426
67.8668
81.1745
96.5394
113.494
131.841
150.851
170.278
189.532
207.549
221.842
220.853
195.047
135.993
45.0852
-57.1071
-149.499
-213.428
-240.347
-230.545
-189.782
-126.491
-49.6459
33.2756
116.682
196.986
272.179
341.314
404.163
461.009
512.429
559.192
602.129
641.908
683.64
714.849
37.5389
28.6494
29.4605
29.229
29.254
29.4458
30.0566
31.2057
33.2364
36.4423
41.1347
47.7307
56.5199
67.5608
80.9725
96.5485
113.86
132.694
152.328
172.442
192.313
210.626
224.564
221.965
192.325
124.658
19.2872
-103.286
-220.327
-310.612
-363.218
-377.114
-357.292
-311.823
-249.397
-177.913
-103.497
-30.1408
39.7475
104.878
164.722
219.328
269.071
314.569
356.529
395.564
436.708
467.172
37.8672
28.8554
29.6399
29.3828
29.3759
29.5325
30.0975
31.1947
33.161
36.2911
40.9057
47.4292
56.1698
67.2204
80.7309
96.5161
114.186
133.508
153.754
174.513
194.905
213.335
226.622
221.972
188.027
111.551
-8.10224
-150.547
-291.674
-407.931
-486.056
-523.507
-524.599
-497.173
-449.543
-389.845
-324.775
-258.738
-194.531
-133.77
-77.2679
-25.1973
22.624
66.6744
107.535
145.778
186.368
216.146
38.1996
29.0628
29.8213
29.5373
29.4981
29.619
30.1372
31.181
33.0806
36.1315
40.6633
47.1075
55.7912
66.8426
80.4431
96.4306
114.452
134.25
155.081
176.42
197.207
215.546
227.856
220.704
181.983
96.5147
-37.1997
-198.92
-363.444
-505.186
-608.553
-669.374
-691.347
-681.997
-649.519
-601.964
-546.566
-488.194
-430.028
-374.011
-321.255
-272.149
-226.719
-184.621
-145.424
-108.591
-69.2848
-41.0895
38.531
29.2699
30.0007
29.6904
29.6189
29.7034
30.1741
31.1631
32.9938
35.9621
40.4057
46.7633
55.3807
66.4218
80.0999
96.2772
114.635
134.885
156.255
178.085
199.114
217.124
228.111
218
174.048
79.4194
-68.1005
-248.424
-435.544
-602.146
-730.448
-814.518
-857.168
-865.768
-848.653
-813.598
-768.178
-717.774
-665.931
-614.925
-566.122
-520.154
-477.226
-437.17
-399.671
-364.27
-326.239
-299.632
38.8666
29.4785
30.1821
29.8442
29.7398
29.7875
30.2097
31.1425
32.902
35.7841
40.1339
46.3968
54.9374
65.9551
79.6946
96.0432
114.712
135.377
157.22
179.431
200.523
217.942
227.25
213.731
164.121
60.1891
-100.842
-299.024
-507.831
-698.54
-851.363
-958.48
-1021.66
-1048.03
-1046.18
-1023.91
-988.761
-946.626
-901.445
-855.822
-811.374
-768.947
-728.917
-691.26
-655.79
-622.103
-585.548
-560.765
39.2012
29.6868
30.3616
29.9966
29.8593
29.8695
30.2427
31.1177
32.8038
35.5961
39.8463
46.0061
54.4582
65.437
79.2182
95.7132
114.659
135.687
157.921
180.378
201.332
217.882
225.149
207.791
152.13
38.7805
-135.435
-350.667
-580.157
-794.108
-970.949
-1100.92
-1184.51
-1228.35
-1241.38
-1231.86
-1207.16
-1173.45
-1135.03
-1094.9
-1054.91
-1016.13
-979.094
-943.955
-910.633
-878.814
-843.932
-821.285
39.5399
29.8966
30.543
30.1496
29.979
29.9512
30.2743
31.0902
32.7005
35.3993
39.5441
45.5919
53.9428
64.8653
78.6644
95.2749
114.453
135.78
158.303
180.853
201.45
216.841
221.711
200.111
138.053
15.2068
-171.832
-403.251
-652.328
-888.556
-1088.82
-1241.48
-1345.43
-1406.63
-1434.13
-1436.69
-1422.29
-1397.1
-1365.66
-1331.3
-1296.11
-1261.37
-1227.75
-1195.52
-1164.7
-1135.06
-1102.05
-1081.73
39.8778
30.1061
30.7224
30.3013
30.0972
30.0307
30.3034
31.0587
32.591
35.1926
39.2259
45.1523
53.3885
64.2354
78.0249
94.7137
114.071
135.618
158.313
180.787
200.794
214.732
216.859
190.649
121.898
-10.4875
-209.955
-456.653
-724.145
-981.587
-1204.6
-1379.74
-1504.18
-1582.86
-1624.66
-1638.49
-1633.23
-1615.84
-1590.83
-1561.77
-1531.02
-1500.05
-1469.66
-1440.24
-1411.9
-1384.53
-1353.45
-1335.6
40.2197
30.3171
30.9038
30.4536
30.2155
30.11
30.3312
31.0245
32.4767
34.9775
38.8931
44.6887
52.7957
63.5457
77.295
94.0193
113.492
135.17
157.906
180.121
199.298
211.492
210.552
179.407
103.721
-38.2052
-249.675
-510.702
-795.367
-1072.87
-1317.88
-1515.29
-1660.51
-1757.09
-1813.35
-1838.51
-1841.53
-1830.39
-1810.46
-1785.51
-1758.14
-1730.04
-1702.15
-1674.99
-1648.74
-1623.45
-1594.09
-1578.63
40.5608
30.5278
31.0831
30.6044
30.3323
30.1871
30.3564
30.9866
32.3564
34.7528
38.5446
44.1995
52.1624
62.7926
76.4679
93.1794
112.698
134.407
157.042
178.805
196.911
207.078
202.771
166.41
83.6017
-67.8229
-290.835
-565.214
-865.751
-1162.05
-1428.23
-1647.67
-1814.02
-1929.34
-2000.95
-2038.28
-2050.16
-2044.97
-2029.07
-2006.62
-1980.67
-1953.25
-1925.6
-1898.42
-1872.02
-1846.72
-1816.87
-1801.61
40.9057
30.74
31.2644
30.7558
30.4493
30.264
30.3805
30.9462
32.2316
34.52
38.1821
43.6865
51.4897
61.9762
75.541
92.1869
111.674
133.305
155.689
176.805
193.6
201.474
193.532
151.722
61.6621
-99.1747
-333.237
-619.962
-935.019
-1248.79
-1535.18
-1776.34
-1964.15
-2099.09
-2187.42
-2238.32
-2260.7
-2263.22
-2252.72
-2234.05
-2210.63
-2184.87
-2158.21
-2131.57
-2105.34
-2080.16
-2049.43
-2033.76
41.2499
30.952
31.4435
30.9057
30.5648
30.3389
30.4022
30.9021
32.1012
34.2783
37.8047
43.1487
50.7764
61.0939
74.5096
91.0337
110.406
131.846
153.823
174.096
189.351
194.685
182.871
135.429
38.0378
-132.08
-376.668
-674.718
-1002.91
-1332.71
-1638.25
-1900.69
-2110.22
-2265.59
-2371.82
-2437.5
-2471.61
-2482.91
-2478.87
-2464.91
-2444.83
-2421.35
-2396.23
-2370.58
-2344.99
-2320.28
-2289.08
-2273.56
41.5977
31.1653
31.6245
31.0562
30.6804
30.4135
30.4228
30.8559
31.9667
34.0292
37.4141
42.588
50.0242
60.1471
73.3738
89.7167
108.889
130.019
151.434
170.671
184.169
186.741
170.856
117.644
12.8941
-166.327
-420.888
-729.226
-1069.13
-1413.46
-1736.94
-2020.06
-2251.43
-2427.97
-2553.3
-2635.04
-2682.2
-2703.52
-2706.77
-2698
-2681.55
-2660.49
-2636.93
-2612.19
-2587.06
-2562.46
-2530.73
-2515.47
41.9448
31.3785
31.8034
31.2052
30.7946
30.4861
30.4411
30.8063
31.827
33.7719
37.0097
42.0039
49.2327
59.135
72.1316
88.2326
107.117
127.818
148.516
166.536
178.078
177.692
157.572
98.5011
-13.5891
-201.69
-465.631
-783.214
-1133.4
-1490.66
-1830.7
-2133.7
-2386.84
-2585.19
-2730.74
-2830.05
-2891.82
-2924.8
-2937.04
-2935.03
-2923.56
-2906.1
-2885.09
-2862.11
-2838.16
-2814.34
-2782.69
-2768.21
42.2953
31.5931
31.9842
31.3547
30.9087
30.5585
30.4585
30.7548
31.6838
33.508
36.5934
41.3986
48.4044
58.06
70.7854
86.5834
105.091
125.245
145.079
161.711
171.12
167.612
143.131
78.1534
-41.2121
-237.92
-510.615
-836.382
-1195.39
-1563.92
-1919
-2240.85
-2515.43
-2735.98
-2902.69
-3020.84
-3098.54
-3144.37
-3166.66
-3172.33
-3166.61
-3153.39
-3135.47
-3114.73
-3092.39
-3069.74
-3038.52
-3025.19
42.6449
31.8075
32.1627
31.5026
31.0215
30.6288
30.4737
30.7001
31.5357
33.2364
36.1643
40.7714
47.5387
56.9219
69.3351
84.7686
102.812
122.305
141.133
156.22
163.338
156.572
127.635
56.7444
-69.7937
-274.797
-555.594
-888.498
-1254.88
-1632.98
-2001.44
-2340.88
-2636.33
-2879.23
-3067.85
-3205.99
-3300.91
-3360.89
-3394.46
-3408.95
-3410.01
-3401.92
-3387.88
-3370.07
-3349.95
-3329.04
-3298.75
-3287.02
42.9976
32.0232
32.3431
31.6511
31.1342
30.699
30.488
30.6436
31.3844
32.959
35.7245
40.1248
46.6387
55.7241
67.7846
82.7934
100.287
119.008
136.698
150.1
154.794
144.661
111.213
34.4409
-99.1262
-312.07
-600.288
-939.282
-1311.61
-1697.53
-2077.56
-2433.12
-2748.59
-3013.72
-3224.81
-3383.98
-3497.38
-3572.93
-3619.13
-3643.67
-3652.58
-3650.59
-3641.26
-3627.12
-3609.9
-3591.33
-3562.54
-3552.97
43.3494
32.2387
32.521
31.7979
31.2455
30.7672
30.5002
30.5842
31.2288
32.6748
35.2733
39.4585
45.7046
54.4678
66.1364
80.6621
97.5244
115.369
131.801
143.393
145.554
131.979
93.9954
11.4119
-129.002
-349.483
-644.411
-988.457
-1365.32
-1757.3
-2147
-2516.98
-2851.31
-3138.28
-3372.2
-3553.33
-3686.49
-3779.05
-3839.34
-3875.26
-3893.24
-3898.39
-3894.69
-3885.03
-3871.41
-3855.84
-3829.11
-3822.26
43.7038
32.4555
32.7009
31.9452
31.3567
30.8353
30.5118
30.5234
31.0705
32.3857
34.8128
38.7751
44.7399
53.1573
64.3964
78.383
94.5364
111.409
126.473
136.15
135.693
118.629
76.1166
-12.1757
-159.221
-386.796
-687.702
-1035.78
-1415.8
-1812.11
-2209.52
-2592.02
-2943.81
-3251.95
-3508.82
-3712.72
-3866.91
-3977.99
-4053.86
-4102.55
-4130.89
-4144.32
-4147.23
-4142.91
-4133.66
-4121.76
-4097.67
-4094.15
44.0568
32.6721
32.8782
32.0907
31.4666
30.9015
30.5213
30.4599
30.9084
32.0906
34.3424
38.0745
43.745
51.7942
62.5683
75.963
91.3353
107.147
120.749
128.424
125.286
104.712
57.7066
-36.1601
-189.586
-423.774
-729.904
-1081.02
-1462.9
-1861.84
-2264.94
-2657.94
-3025.5
-3353.83
-3633.49
-3860.75
-4037.18
-4168.27
-4261.27
-4324.21
-4364.3
-4387.26
-4397.88
-4399.86
-4395.82
-4388.38
-4367.62
-4368.11
44.4122
32.8899
33.0574
32.2368
31.5762
30.9675
30.5302
30.3951
30.7439
31.7913
33.8642
37.3594
42.7235
50.3838
60.6594
73.4131
87.9382
102.611
114.668
120.272
114.415
90.3332
38.8982
-60.3812
-219.907
-460.189
-770.78
-1123.97
-1506.46
-1906.41
-2313.2
-2714.53
-3095.94
-3443.15
-3745.13
-3996.1
-4195.79
-4348.24
-4459.95
-4538.78
-4592.16
-4626.06
-4645.63
-4654.98
-4657.11
-4655
-4638.28
-4643.54
44.7658
33.1074
33.2338
32.381
31.6845
31.0316
30.5372
30.3279
30.5761
31.4868
33.3775
36.6294
41.6762
48.9281
58.6744
70.7418
84.36
97.8238
108.269
111.751
103.154
75.5907
19.8113
-84.6918
-250.007
-495.833
-810.115
-1164.45
-1546.4
-1945.82
-2354.34
-2761.77
-3154.9
-3519.35
-3842.81
-4117.54
-4341.25
-4516.32
-4648.43
-4744.9
-4813.15
-4859.5
-4889.36
-4907.26
-4916.61
-4920.76
-4908.91
-4919.78
45.1208
33.3259
33.4121
32.5258
31.7925
31.0955
30.5438
30.2596
30.4064
31.1791
32.8844
35.8875
40.6068
47.4324
56.6212
67.9616
80.6198
92.8156
101.594
102.917
91.5801
60.5819
0.565842
-108.95
-279.716
-530.511
-847.715
-1202.32
-1582.66
-1980.12
-2388.48
-2799.77
-3202.3
-3582.06
-3925.81
-4223.98
-4472.23
-4671.16
-4825.29
-4941.09
-5025.87
-5086.31
-5128.01
-5155.83
-5173.61
-5185.13
-5179.1
-5196.53
45.4737
33.5442
33.5874
32.6684
31.8992
31.1576
30.5485
30.1891
30.2337
30.8668
32.3842
35.1333
39.5158
45.899
54.5049
65.0817
76.7338
87.6114
94.6796
93.825
79.7629
45.3925
-18.7346
-133.031
-308.884
-564.051
-883.419
-1237.48
-1615.22
-2009.43
-2415.87
-2828.77
-3238.3
-3631.16
-3993.59
-4314.5
-4587.47
-4811.25
-4988.72
-5125.55
-5228.72
-5305.04
-5360.31
-5399.6
-5427.2
-5447.36
-5448.26
-5473.34
45.8273
33.7632
33.7646
32.8117
32.0055
31.2196
30.5529
30.1178
30.0596
30.552
31.8789
34.3695
38.4069
44.3332
52.3336
62.1148
72.7213
82.2402
87.5678
84.528
67.7706
30.1069
-37.9882
-156.814
-337.37
-596.298
-917.088
-1269.83
-1644.1
-2033.92
-2436.81
-2849.19
-3263.21
-3666.72
-4045.9
-4388.4
-4685.9
-4935.09
-5137.18
-5296.83
-5420.25
-5514.23
-5584.86
-5637.4
-5676.43
-5706.78
-5716.05
-5750.27
46.178
33.9819
33.9385
32.9527
32.1105
31.2797
30.5554
30.0444
29.8828
30.2333
31.3676
33.5955
37.2807
42.7372
50.1123
59.0702
68.598
76.7262
80.2931
75.0735
55.6628
14.7965
-57.1102
-180.197
-365.052
-627.122
-948.616
-1299.34
-1669.38
-2053.79
-2451.68
-2861.52
-3277.56
-3689.12
-4082.75
-4445.27
-4766.64
-5041.52
-5269.34
-5453.2
-5598.6
-5712.13
-5800.03
-5867.69
-5919.91
-5962.04
-5981.15
-6025.98
46.5282
34.2011
34.1141
33.0943
32.215
31.3396
30.5577
29.9704
29.7048
29.9126
30.8525
32.8142
36.1406
41.116
47.8488
55.9601
64.3826
71.0963
72.8927
65.5083
43.4972
-0.469444
-76.0183
-203.086
-391.82
-656.412
-977.923
-1325.98
-1691.15
-2069.31
-2460.93
-2866.39
-3282.02
-3698.93
-4104.44
-4484.97
-4829.08
-5129.47
-5383.6