/*--------------------------------*- C++ -*----------------------------------*\
  =========                 |
  \\      /  F ield         | OpenFOAM: The Open Source CFD Toolbox
   \\    /   O peration     | Website:  https://openfoam.org
    \\  /    A nd           | Version:  10
     \\/     M anipulation  |
\*---------------------------------------------------------------------------*/
FoamFile
{
    format      ascii;
    class       surfaceScalarField;
    location    "5";
    object      phi;
}
// * * * * * * * * * * * * * * * * * * * * * * * * * * * * * * * * * * * * * //

dimensions      [0 3 -1 0 0 0 0];

internalField   nonuniform List<scalar> 
75600
(
0.0178236
-2234.06
2234.07
0.0101719
-1849.62
1849.62
0.00377682
-1531.38
1531.39
-0.00155016
-1267.95
1267.95
-0.00597398
-1049.9
1049.9
-0.00964315
-869.43
869.434
-0.0126852
-720.078
720.081
-0.0152113
-596.5
596.502
-0.0173011
-494.271
494.273
-0.0190325
-409.732
409.734
-0.0204668
-339.858
339.859
-0.021653
-282.146
282.147
-0.0226339
-234.531
234.532
-0.0234452
-195.309
195.31
-0.0241148
-163.075
163.076
-0.0246687
-136.675
136.676
-0.0251252
-115.165
115.166
-0.0255034
-97.7748
97.7752
-0.0258148
-83.8814
83.8817
-0.0260713
-72.9877
72.9879
-0.026278
-64.7034
64.7036
-0.0264462
-58.7315
58.7316
-0.0265655
-54.8554
54.8556
-0.0266516
-52.9331
52.9331
-0.0266731
-52.6946
52.6946
-0.0266326
-41.9903
41.9902
-0.0265327
-33.4409
33.4408
-0.0263966
-26.617
26.6169
-0.02623
-21.1747
21.1746
-0.0260394
-16.8386
16.8384
-0.0258262
-13.3869
13.3867
-0.0255905
-10.6414
10.6412
-0.0253328
-8.45916
8.4589
-0.0250545
-6.72543
6.72515
-0.0247583
-5.34875
5.34845
-0.0244481
-4.25616
4.25585
-0.024129
-3.38962
3.3893
-0.0238064
-2.703
2.70268
-0.0234858
-2.1597
2.15938
-0.0231721
-1.73074
1.73043
-0.0228694
-1.39324
1.39293
-0.0225805
-1.12917
1.12889
-0.0223056
-0.924458
0.924183
-0.0220436
-0.768155
0.767893
-0.0217949
-0.651913
0.651665
-0.021577
-0.569475
0.569258
-0.0213138
-0.51649
0.516226
-0.489712
0.48957
-0.0211716
0.0628817
-2234.05
0.0468307
-1849.6
0.0334678
-1531.37
0.0223666
-1267.94
0.0131533
-1049.89
0.00551257
-869.422
-0.000823261
-720.072
-0.00607128
-596.494
-0.0104249
-494.266
-0.0140327
-409.728
-0.0170238
-339.855
-0.0195046
-282.144
-0.0215624
-234.529
-0.0232716
-195.307
-0.024693
-163.074
-0.0258788
-136.674
-0.0268693
-115.164
-0.0277035
-97.774
-0.0284075
-83.8807
-0.0290077
-72.9871
-0.029519
-64.7029
-0.0299635
-58.731
-0.0303341
-54.8551
-0.0306502
-52.9327
-0.0308703
-52.6943
-0.0309477
-41.9902
-0.0308949
-33.441
-0.0307513
-26.6172
-0.0305334
-21.175
-0.0302571
-16.8388
-0.0299296
-13.3872
-0.029554
-10.6418
-0.0291335
-8.45958
-0.0286716
-6.72589
-0.0281734
-5.34924
-0.0276462
-4.25669
-0.0270992
-3.39017
-0.0265418
-2.70356
-0.0259842
-2.16026
-0.025435
-1.73129
-0.0249014
-1.39377
-0.0243884
-1.12969
-0.0238966
-0.92495
-0.0234246
-0.768627
-0.0229734
-0.652365
-0.0225546
-0.569894
-0.0220603
-0.516984
-0.490124
-0.0216476
0.107102
-2234.02
0.0817335
-1849.58
0.0606561
-1531.35
0.0431638
-1267.92
0.0286658
-1049.88
0.0166431
-869.41
0.00668242
-720.062
-0.00157892
-596.486
-0.00842221
-494.26
-0.0140981
-409.723
-0.0188069
-339.85
-0.0227155
-282.14
-0.0259634
-234.526
-0.0286668
-195.305
-0.0309219
-163.071
-0.032811
-136.672
-0.0343999
-115.163
-0.0357471
-97.7726
-0.0368983
-83.8795
-0.037894
-72.9861
-0.0387611
-64.7021
-0.0395334
-58.7302
-0.0402074
-54.8544
-0.0408084
-52.9322
-0.0412775
-52.6939
-0.0414916
-41.99
-0.041474
-33.441
-0.0412848
-26.6174
-0.0409535
-21.1753
-0.0405096
-16.8393
-0.0399692
-13.3877
-0.0393414
-10.6424
-0.0386332
-8.46029
-0.0378522
-6.72667
-0.037008
-5.35009
-0.0361127
-4.25758
-0.0351816
-3.3911
-0.0342307
-2.70451
-0.0332766
-2.16121
-0.0323338
-1.73224
-0.0314136
-1.39469
-0.0305241
-1.13058
-0.0296664
-0.925807
-0.0288378
-0.769456
-0.0280353
-0.653167
-0.0272383
-0.570691
-0.0263496
-0.517872
-0.490993
-0.025481
0.151627
-2233.97
0.116805
-1849.54
0.0879237
-1531.32
0.0639847
-1267.9
0.0441491
-1049.86
0.0277179
-869.394
0.0141033
-720.048
0.00282595
-596.475
-0.00652604
-494.25
-0.0142791
-409.715
-0.0207131
-339.844
-0.026057
-282.134
-0.0305021
-234.522
-0.0342082
-195.301
-0.0373071
-163.068
-0.0399116
-136.67
-0.0421127
-115.161
-0.0439912
-97.7707
-0.0456111
-83.8779
-0.0470285
-72.9847
-0.0482843
-64.7008
-0.0494227
-58.7291
-0.0504476
-54.8534
-0.0513879
-52.9312
-0.0521679
-52.6931
-0.0525617
-41.9896
-0.0526033
-33.4409
-0.0523754
-26.6176
-0.0519226
-21.1757
-0.0512893
-16.8399
-0.0505027
-13.3885
-0.049579
-10.6434
-0.0485307
-8.46133
-0.0473704
-6.72783
-0.0461132
-5.35135
-0.0447776
-4.25892
-0.0433861
-3.39249
-0.0419623
-2.70594
-0.04053
-2.16265
-0.0391105
-1.73365
-0.0377201
-1.39608
-0.0363704
-1.13193
-0.0350637
-0.927114
-0.0337956
-0.770724
-0.0325531
-0.654409
-0.0312853
-0.571959
-0.0299476
-0.51921
-0.492382
-0.0285579
0.196959
-2233.92
0.152807
-1849.5
0.116229
-1531.28
0.0859441
-1267.87
0.0608742
-1049.83
0.0401166
-869.373
0.0229301
-720.031
0.00869253
-596.461
-0.00310404
-494.238
-0.0128852
-409.705
-0.0210034
-339.835
-0.0277494
-282.128
-0.0333651
-234.516
-0.0380536
-195.296
-0.0419822
-163.064
-0.0452941
-136.666
-0.0481047
-115.158
-0.050518
-97.7683
-0.0526153
-83.8758
-0.0544701
-72.9828
-0.0561377
-64.6991
-0.0576737
-58.7276
-0.0590902
-54.8519
-0.0604212
-52.9299
-0.0615758
-52.6919
-0.0621975
-41.989
-0.0623338
-33.4408
-0.0620915
-26.6178
-0.0615321
-21.1763
-0.0607168
-16.8407
-0.0596852
-13.3896
-0.0584617
-10.6446
-0.0570653
-8.46273
-0.0555141
-6.72938
-0.05383
-5.35303
-0.0520381
-4.26071
-0.0501686
-3.39436
-0.0482533
-2.70785
-0.0463237
-2.16458
-0.0444086
-1.73557
-0.0425302
-1.39796
-0.0407042
-1.13375
-0.0389356
-0.928882
-0.0372184
-0.772441
-0.0355287
-0.656099
-0.0338069
-0.57368
-0.0320356
-0.520981
-0.494297
-0.0301212
0.24338
-2233.86
0.190075
-1849.44
0.145977
-1531.24
0.109497
-1267.83
0.0793283
-1049.8
0.0543662
-869.348
0.0337139
-720.01
0.016614
-596.444
0.00244839
-494.224
-0.00929484
-409.694
-0.0190417
-339.826
-0.0271437
-282.12
-0.0338936
-234.509
-0.0395358
-195.291
-0.0442731
-163.06
-0.0482777
-136.662
-0.0516913
-115.154
-0.0546381
-97.7654
-0.0572197
-83.8732
-0.0595262
-72.9805
-0.0616258
-64.697
-0.0635901
-58.7256
-0.0654376
-54.8501
-0.0672096
-52.9281
-0.0687999
-52.6903
-0.0696933
-41.9881
-0.0699535
-33.4405
-0.0697131
-26.6181
-0.069053
-21.177
-0.0680528
-16.8417
-0.0667657
-13.3909
-0.0652255
-10.6461
-0.0634588
-8.4645
-0.0614905
-6.73135
-0.0593497
-5.35517
-0.0570699
-4.26299
-0.0546898
-3.39674
-0.0522511
-2.71029
-0.0497945
-2.16703
-0.0473576
-1.73801
-0.0449704
-1.40034
-0.0426546
-1.13607
-0.0404188
-0.931118
-0.0382558
-0.774604
-0.0361356
-0.658219
-0.0340023
-0.575814
-0.0318352
-0.523148
-0.496669
-0.0294626
0.290741
-2233.78
0.228165
-1849.38
0.176464
-1531.18
0.133749
-1267.79
0.0984548
-1049.77
0.069283
-869.319
0.0451595
-719.986
0.0252
-596.424
0.00867308
-494.208
-0.00502479
-409.68
-0.0163937
-339.814
-0.0258474
-282.11
-0.0337292
-234.501
-0.0403255
-195.284
-0.0458753
-163.054
-0.0505805
-136.658
-0.0546087
-115.15
-0.0581065
-97.7619
-0.0611948
-83.8701
-0.0639814
-72.9777
-0.0665511
-64.6945
-0.0689888
-58.7232
-0.071323
-54.8478
-0.0736023
-52.9259
-0.0757039
-52.6882
-0.0769183
-41.9869
-0.0773281
-33.4401
-0.0770956
-26.6183
-0.0763237
-21.1777
-0.0751134
-16.8429
-0.0735341
-13.3924
-0.0716308
-10.648
-0.0694397
-8.46669
-0.0669939
-6.73379
-0.0643319
-5.35783
-0.0614975
-4.26582
-0.0585408
-3.3997
-0.0555157
-2.71332
-0.0524748
-2.17007
-0.0494673
-1.74101
-0.0465337
-1.40328
-0.0437033
-1.1389
-0.0409894
-0.933832
-0.0383847
-0.777208
-0.0358583
-0.660745
-0.0333562
-0.578316
-0.0308441
-0.52566
-0.499406
-0.0281076
0.339142
-2233.69
0.267109
-1849.31
0.207676
-1531.12
0.158634
-1267.74
0.118161
-1049.73
0.0847371
-869.286
0.057124
-719.959
0.0342943
-596.401
0.0154018
-494.189
-0.0002525
-409.664
-0.0132448
-339.801
-0.0240513
-282.099
-0.0330671
-234.492
-0.0406233
-195.277
-0.046994
-163.048
-0.0524125
-136.652
-0.0570723
-115.146
-0.0611441
-97.7578
-0.0647687
-83.8665
-0.0680733
-72.9744
-0.071159
-64.6914
-0.0741267
-58.7202
-0.0770162
-54.8449
-0.0798841
-52.923
-0.0825882
-52.6855
-0.0841824
-41.9853
-0.0847717
-33.4395
-0.0845519
-26.6185
-0.0836521
-21.1786
-0.0821982
-16.8444
-0.0802791
-13.3943
-0.0779537
-10.6504
-0.07527
-8.46937
-0.0722717
-6.73679
-0.0690101
-5.36109
-0.0655419
-4.26929
-0.0619322
-3.40331
-0.0582509
-2.717
-0.0545662
-2.17376
-0.0509426
-1.74464
-0.0474333
-1.40679
-0.0440769
-1.14225
-0.0408915
-0.937017
-0.0378714
-0.780228
-0.0349849
-0.663632
-0.0321757
-0.581125
-0.0293959
-0.52844
-0.50239
-0.0264115
0.388768
-2233.59
0.307053
-1849.23
0.239729
-1531.06
0.18426
-1267.68
0.13854
-1049.68
0.100829
-869.248
0.0697079
-719.927
0.0439948
-596.375
0.0227329
-494.168
0.00512186
-409.647
-0.0094929
-339.787
-0.021652
-282.087
-0.0318047
-234.482
-0.0403254
-195.268
-0.0475259
-163.041
-0.0536712
-136.646
-0.058983
-115.14
-0.0636547
-97.7532
-0.0678501
-83.8623
-0.0717157
-72.9706
-0.0753716
-64.6877
-0.0789364
-58.7167
-0.0824614
-54.8413
-0.086013
-52.9194
-0.0894283
-52.6821
-0.091473
-41.9833
-0.0922788
-33.4387
-0.0920798
-26.6187
-0.0910361
-21.1797
-0.0893031
-16.8461
-0.0869927
-13.3967
-0.0841812
-10.6532
-0.0809318
-8.47262
-0.0773023
-6.74042
-0.0733599
-5.36503
-0.0691792
-4.27347
-0.0648446
-3.40764
-0.0604464
-2.72139
-0.0560733
-2.17813
-0.0518078
-1.7489
-0.0477179
-1.41088
-0.0438517
-1.14612
-0.0402313
-0.940637
-0.0368512
-0.783608
-0.0336763
-0.666807
-0.0306424
-0.584159
-0.0276901
-0.531392
-0.505502
-0.0245776
0.439801
-2233.48
0.348162
-1849.14
0.272791
-1530.98
0.210783
-1267.62
0.159749
-1049.63
0.117715
-869.206
0.0830649
-719.893
0.0544684
-596.346
0.0308344
-494.144
0.0112712
-409.627
-0.00496045
-339.771
-0.0184684
-282.074
-0.0297565
-234.471
-0.0392452
-195.259
-0.0472844
-163.032
-0.0541713
-136.639
-0.0601557
-115.134
-0.0654572
-97.7479
-0.0702619
-83.8575
-0.0747385
-72.9661
-0.0790267
-64.6835
-0.0832653
-58.7124
-0.0875194
-54.8371
-0.0918661
-52.9151
-0.0961193
-52.6778
-0.0986981
-41.9807
-0.0997655
-33.4376
-0.0995995
-26.6189
-0.098397
-21.1809
-0.0963479
-16.8482
-0.0935921
-13.3994
-0.0902274
-10.6565
-0.0863364
-8.47651
-0.0819952
-6.74476
-0.0772924
-5.36974
-0.0723254
-4.27844
-0.0672038
-3.41276
-0.0620438
-2.72655
-0.0569584
-2.18322
-0.0520507
-1.75381
-0.0474036
-1.41552
-0.0430727
-1.15045
-0.0390815
-0.944628
-0.0354192
-0.787271
-0.0320428
-0.670183
-0.0288744
-0.587327
-0.0258453
-0.534421
-0.508638
-0.0227095
0.492435
-2233.36
0.39061
-1849.03
0.307002
-1530.9
0.238341
-1267.55
0.181928
-1049.57
0.135534
-869.159
0.0973405
-719.855
0.0658554
-596.315
0.0398612
-494.118
0.0183554
-409.605
0.00051623
-339.753
-0.0143338
-282.059
-0.0267543
-234.458
-0.0372123
-195.248
-0.0460974
-163.024
-0.0537407
-136.632
-0.0604212
-115.128
-0.0663852
-97.7419
-0.0718434
-83.852
-0.0769878
-72.9609
-0.0819801
-64.6785
-0.0869812
-58.7074
-0.0920723
-54.832
-0.0973435
-52.9098
-0.102582
-52.6726
-0.105793
-41.9775
-0.107176
-33.4363
-0.10706
-26.619
-0.105685
-21.1822
-0.103282
-16.8506
-0.100024
-13.4027
-0.0960364
-10.6605
-0.0914259
-8.48112
-0.0862931
-6.74989
-0.080754
-5.37528
-0.0749356
-4.28426
-0.0689793
-3.41872
-0.0630324
-2.7325
-0.0572353
-2.18901
-0.0517124
-1.75933
-0.0465589
-1.42068
-0.0418334
-1.15518
-0.0375543
-0.948908
-0.0336996
-0.791125
-0.0302105
-0.673672
-0.026994
-0.590543
-0.0239704
-0.537444
-0.511715
-0.0208928
0.546869
-2233.22
0.434559
-1848.92
0.342523
-1530.81
0.267088
-1267.48
0.205224
-1049.51
0.154434
-869.109
0.112691
-719.813
0.0783252
-596.281
0.0499815
-494.09
0.0265493
-409.582
0.0071172
-339.733
-0.00906212
-282.043
-0.0226078
-234.445
-0.0340348
-195.237
-0.0437727
-163.014
-0.0521881
-136.623
-0.0595903
-115.12
-0.0662535
-97.7352
-0.0724149
-83.8459
-0.0782916
-72.9551
-0.08407
-64.6727
-0.0899353
-58.7016
-0.0959877
-54.826
-0.102332
-52.9035
-0.108727
-52.6662
-0.112684
-41.9735
-0.114448
-33.4345
-0.114405
-26.6191
-0.112846
-21.1838
-0.11005
-16.8534
-0.106232
-13.4065
-0.101549
-10.6652
-0.0961412
-8.48653
-0.0901399
-6.75589
-0.0836962
-5.38172
-0.0769746
-4.29098
-0.0701547
-3.42554
-0.0634194
-2.73924
-0.0569381
-2.19549
-0.0508537
-1.76542
-0.0452682
-1.42626
-0.040236
-1.16021
-0.0357612
-0.953382
-0.0318039
-0.795082
-0.0282842
-0.677192
-0.0250928
-0.593734
-0.0221385
-0.540399
-0.514677
-0.0191768
0.603301
-2233.07
0.480191
-1848.8
0.379518
-1530.71
0.297182
-1267.39
0.229795
-1049.44
0.174588
-869.053
0.129288
-719.768
0.0920552
-596.243
0.0613829
-494.059
0.0360472
-409.557
0.0150448
-339.712
-0.00244706
-282.025
-0.0171063
-234.43
-0.0294988
-195.224
-0.0400953
-163.003
-0.0492985
-136.614
-0.0574499
-115.112
-0.0648533
-97.7278
-0.0717737
-83.839
-0.0784559
-72.9484
-0.0851134
-64.666
-0.091959
-58.6947
-0.0991147
-54.8188
-0.106702
-52.8959
-0.114451
-52.6584
-0.119287
-41.9687
-0.121508
-33.4323
-0.121567
-26.619
-0.119815
-21.1856
-0.116588
-16.8566
-0.112151
-13.4109
-0.106702
-10.6706
-0.100422
-8.49281
-0.0934816
-6.76283
-0.0860767
-5.38913
-0.0784176
-4.29864
-0.0707281
-3.43323
-0.0632292
-2.74674
-0.0561176
-2.2026
-0.049549
-1.77198
-0.0436233
-1.43219
-0.0383807
-1.16545
-0.033803
-0.95796
-0.0298246
-0.799061
-0.0263439
-0.680672
-0.0232341
-0.596844
-0.0203951
-0.543237
-0.517486
-0.0175859
0.661948
-2232.91
0.527702
-1848.66
0.418165
-1530.6
0.328793
-1267.31
0.255828
-1049.37
0.196173
-868.994
0.147331
-719.719
0.107249
-596.203
0.0742819
-494.026
0.0470758
-409.53
0.0245325
-339.69
0.0057529
-282.006
-0.0100039
-234.414
-0.0233542
-195.211
-0.0348132
-162.992
-0.0448203
-136.604
-0.0537502
-115.103
-0.0619387
-97.7196
-0.0696805
-83.8312
-0.0772507
-72.9408
-0.0848928
-64.6584
-0.0928511
-58.6867
-0.101272
-54.8104
-0.110297
-52.8869
-0.119624
-52.6491
-0.125492
-41.9628
-0.12826
-33.4295
-0.128458
-26.6188
-0.126509
-21.1875
-0.122815
-16.8603
-0.117701
-13.416
-0.111418
-10.6769
-0.104195
-8.50003
-0.0962556
-6.77077
-0.0878492
-5.39753
-0.0792399
-4.30725
-0.0707005
-3.44177
-0.0624897
-2.75495
-0.054826
-2.21027
-0.0478685
-1.77894
-0.0417043
-1.43835
-0.036348
-1.17081
-0.0317526
-0.962555
-0.0278227
-0.80299
-0.0244354
-0.684059
-0.0214482
-0.599831
-0.0187545
-0.54593
-0.520122
-0.0161176
0.723037
-2232.73
0.577289
-1848.52
0.458665
-1530.48
0.36213
-1267.21
0.283519
-1049.29
0.219413
-868.93
0.167039
-719.666
0.124154
-596.16
0.0889326
-493.991
0.0599002
-409.5
0.0358569
-339.666
0.0158227
-281.986
-0.00100842
-234.398
-0.0153054
-195.197
-0.0276274
-162.979
-0.0384535
-136.593
-0.0481942
-115.094
-0.0572169
-97.7106
-0.0658496
-83.8226
-0.0744003
-72.9323
-0.0831458
-64.6496
-0.0923652
-58.6775
-0.102234
-54.8005
-0.112919
-52.8762
-0.124081
-52.6379
-0.131155
-41.9557
-0.134576
-33.4261
-0.13496
-26.6184
-0.132813
-21.1897
-0.12862
-16.8645
-0.122774
-13.4219
-0.115592
-10.6841
-0.107366
-8.50826
-0.0983831
-6.77975
-0.088955
-5.40696
-0.079408
-4.31679
-0.0700654
-3.45111
-0.0612195
-2.76379
-0.0531016
-2.21839
-0.0458618
-1.78618
-0.039562
-1.44465
-0.0341831
-1.17619
-0.0296428
-0.967095
-0.0258176
-0.806815
-0.022563
-0.687314
-0.0197261
-0.602668
-0.0171942
-0.548462
-0.522579
-0.0147376
0.786784
-2232.53
0.629143
-1848.36
0.501177
-1530.35
0.397339
-1267.1
0.31302
-1049.21
0.244456
-868.861
0.188588
-719.611
0.142938
-596.115
0.105518
-493.953
0.0747138
-409.47
0.0492188
-339.64
0.0279697
-281.965
0.0100936
-234.38
-0.00513416
-195.181
-0.0183196
-162.966
-0.0299809
-136.582
-0.0405658
-115.083
-0.0504779
-97.7007
-0.0600795
-83.813
-0.0697147
-72.9226
-0.0796977
-64.6397
-0.0903468
-58.6669
-0.101872
-54.789
-0.114465
-52.8636
-0.127754
-52.6247
-0.136235
-41.9473
-0.14043
-33.4219
-0.141057
-26.6178
-0.138721
-21.192
-0.134
-16.8692
-0.127374
-13.4285
-0.119239
-10.6922
-0.109962
-8.51753
-0.0999079
-6.78981
-0.089462
-5.41741
-0.0790165
-4.32724
-0.0689437
-3.46118
-0.0595613
-2.77317
-0.0511004
-2.22685
-0.0436886
-1.79359
-0.037351
-1.45099
-0.0320288
-1.18151
-0.0276023
-0.971521
-0.0239224
-0.810495
-0.0208267
-0.690409
-0.0181553
-0.605339
-0.0157912
-0.550826
-0.524856
-0.0135145
0.853436
-2232.32
0.683481
-1848.19
0.545915
-1530.21
0.434636
-1266.99
0.34457
-1049.12
0.271555
-868.788
0.21223
-719.551
0.163885
-596.066
0.124336
-493.914
0.0918297
-409.437
0.0649456
-339.613
0.0425326
-281.943
0.0236485
-234.361
0.00751097
-195.165
-0.00653275
-162.952
-0.0190448
-136.569
-0.0305107
-115.071
-0.0413715
-97.6898
-0.0520278
-83.8023
-0.0628634
-72.9118
-0.0742334
-64.6283
-0.0865011
-58.6546
-0.0999145
-54.7756
-0.114699
-52.8488
-0.130443
-52.6089
-0.140558
-41.9371
-0.145669
-33.4168
-0.146611
-26.6168
-0.144102
-21.1945
-0.138832
-16.8745
-0.131386
-13.436
-0.122254
-10.7014
-0.111897
-8.52789
-0.100767
-6.80094
-0.0893339
-5.42884
-0.0780567
-4.33852
-0.0673506
-3.47189
-0.0575465
-2.78298
-0.0488605
-2.23553
-0.0413839
-1.80107
-0.0350966
-1.45728
-0.0298958
-1.18671
-0.0256284
-0.975788
-0.0221212
-0.814002
-0.0192004
-0.693329
-0.0166999
-0.60784
-0.0145042
-0.553022
-0.526958
-0.0124018
0.923248
-2232.1
0.740534
-1848.01
0.593101
-1530.06
0.474249
-1266.87
0.378391
-1049.02
0.300951
-868.711
0.238234
-719.488
0.187271
-596.015
0.145681
-493.872
0.111557
-409.403
0.0833596
-339.585
0.0598456
-281.919
0.0399994
-234.341
0.0229804
-195.148
0.00808503
-162.937
-0.00529164
-136.556
-0.0176775
-115.059
-0.0295527
-97.678
-0.0413588
-83.7905
-0.0535229
-72.8996
-0.0664471
-64.6154
-0.0805442
-58.6405
-0.0961074
-54.76
-0.113399
-52.8315
-0.13197
-52.5903
-0.143976
-41.9251
-0.150166
-33.4106
-0.151507
-26.6155
-0.148853
-21.1972
-0.143026
-16.8803
-0.134732
-13.4442
-0.124576
-10.7115
-0.113128
-8.53934
-0.100945
-6.81312
-0.0885835
-5.4412
-0.0765676
-4.35053
-0.0653452
-3.48311
-0.055245
-2.79308
-0.0464519
-2.24432
-0.0390097
-1.80851
-0.0328474
-1.46344
-0.0278197
-1.19174
-0.0237431
-0.979864
-0.0204258
-0.817319
-0.0176871
-0.696068
-0.015358
-0.610169
-0.0133259
-0.555054
-0.528894
-0.0113892
0.996477
-2231.86
0.800546
-1847.81
0.642969
-1529.91
0.516409
-1266.75
0.414728
-1048.92
0.332901
-868.629
0.266875
-719.422
0.213395
-595.962
0.169871
-493.829
0.134231
-409.367
0.104811
-339.556
0.0802702
-281.895
0.0595185
-234.32
0.0416524
-195.13
0.0259175
-162.922
0.0116616
-136.541
-0.00168416
-115.046
-0.0146447
-97.665
-0.027705
-83.7775
-0.0413408
-72.886
-0.0560051
-64.6007
-0.0721664
-58.6244
-0.0901702
-54.742
-0.110321
-52.8114
-0.132134
-52.5685
-0.146322
-41.9109
-0.153778
-33.4031
-0.155623
-26.6137
-0.152867
-21.1999
-0.146486
-16.8867
-0.137332
-13.4534
-0.126145
-10.7227
-0.113624
-8.55186
-0.100438
-6.82631
-0.0872352
-5.4544
-0.0745976
-4.36317
-0.0629909
-3.49472
-0.0527246
-2.80334
-0.0439375
-2.25311
-0.0366172
-1.81583
-0.0306416
-1.46941
-0.025825
-1.19655
-0.0219604
-0.983728
-0.0188418
-0.820438
-0.0162857
-0.698623
-0.0141238
-0.612331
-0.0122476
-0.55693
-0.530676
-0.010466
1.07341
-2231.6
0.863764
-1847.6
0.695752
-1529.74
0.561357
-1266.61
0.453844
-1048.81
0.367686
-868.543
0.298447
-719.353
0.242576
-595.906
0.197246
-493.783
0.160211
-409.33
0.129676
-339.525
0.104198
-281.869
0.0826068
-234.299
0.0639364
-195.112
0.0473775
-162.905
0.0322312
-136.526
0.0178811
-115.031
0.00375821
-97.6509
-0.0106719
-83.763
-0.0259361
-72.8707
-0.0425458
-64.5841
-0.0610316
-58.6059
-0.081799
-54.7212
-0.105203
-52.788
-0.130721
-52.543
-0.147418
-41.8942
-0.156353
-33.3942
-0.158826
-26.6112
-0.156028
-21.2027
-0.149114
-16.8936
-0.139109
-13.4634
-0.12691
-10.7349
-0.113361
-8.56541
-0.0992531
-6.84041
-0.0853237
-5.46833
-0.0722013
-4.37629
-0.0603521
-3.50656
-0.0500483
-2.81365
-0.0413714
-2.26179
-0.0342478
-1.82296
-0.0285076
-1.47515
-0.0239298
-1.20113
-0.0202898
-0.987368
-0.0173732
-0.823354
-0.0149967
-0.701
-0.012995
-0.614332
-0.0112659
-0.558658
-0.532314
-0.00962786
1.15434
-2231.32
0.930457
-1847.38
0.751719
-1529.56
0.609365
-1266.47
0.49601
-1048.7
0.405604
-868.452
0.333281
-719.281
0.275157
-595.848
0.228172
-493.736
0.189883
-409.292
0.158358
-339.494
0.132046
-281.843
0.109695
-234.276
0.0902708
-195.092
0.0729089
-162.888
0.0568602
-136.51
0.0414605
-115.016
0.0260914
-97.6355
0.0101667
-83.7471
-0.00689944
-72.8537
-0.0256809
-64.5653
-0.046779
-58.5848
-0.0706675
-54.6974
-0.0977589
-52.7609
-0.127497
-52.5133
-0.147067
-41.8747
-0.157726
-33.3835
-0.160976
-26.6079
-0.158216
-21.2055
-0.150814
-16.901
-0.139991
-13.4742
-0.126827
-10.7481
-0.112326
-8.57991
-0.0974086
-6.85533
-0.0828928
-5.48285
-0.069438
-4.38975
-0.0574916
-3.51851
-0.0472735
-2.82386
-0.0387985
-2.27026
-0.031934
-1.82982
-0.0264648
-1.48062
-0.0221447
-1.20545
-0.0187343
-0.990779
-0.0160191
-0.826069
-0.013815
-0.703204
-0.0119659
-0.616181
-0.010373
-0.560251
-0.533821
-0.00886609
1.23957
-2231.02
1.00091
-1847.14
0.811132
-1529.37
0.660703
-1266.32
0.541528
-1048.58
0.446965
-868.358
0.371704
-719.206
0.311506
-595.788
0.263035
-493.688
0.223657
-409.253
0.191285
-339.461
0.164259
-281.816
0.141238
-234.253
0.12112
-195.072
0.102982
-162.87
0.0860213
-136.493
0.0695236
-115
0.0528181
-97.6188
0.0352608
-83.7296
0.0162041
-72.8346
-0.00499787
-64.5441
-0.0290243
-58.5607
-0.0564269
-54.6699
-0.0876852
-52.7296
-0.122213
-52.4787
-0.145063
-41.8518
-0.157723
-33.3709
-0.161924
-26.6037
-0.15931
-21.2081
-0.15149
-16.9088
-0.139911
-13.4858
-0.125863
-10.7621
-0.110521
-8.59525
-0.0949341
-6.87092
-0.0799933
-5.49779
-0.0663682
-4.40337
-0.0544691
-3.53041
-0.0444495
-2.83388
-0.0362559
-2.27846
-0.0296992
-1.83638
-0.0245271
-1.48579
-0.0204749
-1.2095
-0.0172945
-0.993959
-0.0147752
-0.828588
-0.0127345
-0.705245
-0.0110278
-0.617888
-0.00955871
-0.56172
-0.535209
-0.00816964
1.32943
-2230.7
1.07541
-1846.89
0.874289
-1529.17
0.715668
-1266.16
0.590696
-1048.45
0.492111
-868.259
0.414081
-719.128
0.352004
-595.726
0.302246
-493.638
0.261962
-409.212
0.228909
-339.428
0.201304
-281.788
0.177718
-234.23
0.156975
-195.051
0.138091
-162.851
0.120211
-136.475
0.102565
-114.982
0.0844248
-97.6007
0.0650875
-83.7102
0.0438335
-72.8134
0.0199393
-64.5202
-0.00736178
-58.5334
-0.0387097
-54.6386
-0.0746605
-52.6937
-0.114604
-52.4388
-0.141185
-41.8252
-0.156158
-33.3559
-0.161519
-26.5984
-0.159187
-21.2104
-0.151049
-16.917
-0.138812
-13.498
-0.123995
-10.7769
-0.107955
-8.61129
-0.0918692
-6.887
-0.0766814
-5.51297
-0.0630527
-4.417
-0.0513388
-3.54212
-0.0416195
-2.8436
-0.0337727
-2.2863
-0.027562
-1.84259
-0.0227042
-1.49065
-0.0189256
-1.21328
-0.0159728
-0.996912
-0.0136441
-0.830916
-0.0117588
-0.70713
-0.0101855
-0.619461
-0.00883111
-0.563075
-0.536491
-0.00754945
1.42426
-2230.36
1.15427
-1846.62
0.941485
-1528.96
0.77457
-1266
0.643855
-1048.32
0.541378
-868.157
0.460786
-719.047
0.397047
-595.662
0.346229
-493.587
0.30525
-409.171
0.271699
-339.395
0.243669
-281.76
0.219635
-234.206
0.198345
-195.03
0.178755
-162.831
0.159948
-136.457
0.141099
-114.963
0.121421
-97.581
0.100142
-83.6889
0.0764671
-72.7897
0.0495851
-64.4933
0.018633
-58.5025
-0.0171305
-54.6028
-0.0583485
-52.6525
-0.104393
-52.3928
-0.135204
-41.7944
-0.152842
-33.3382
-0.159604
-26.5916
-0.157727
-21.2123
-0.149408
-16.9253
-0.136646
-13.5108
-0.121213
-10.7924
-0.104654
-8.62785
-0.0882613
-6.90339
-0.0730161
-5.52822
-0.0595499
-4.43046
-0.0481499
-3.55352
-0.0388195
-2.85293
-0.0313726
-2.29375
-0.0255349
-1.84842
-0.021001
-1.49519
-0.0174944
-1.21679
-0.0147641
-0.999642
-0.012616
-0.833064
-0.0108783
-0.708868
-0.00942932
-0.62091
-0.00818024
-0.564324
-0.537673
-0.00699876
1.52441
-2230
1.23784
-1846.33
1.01305
-1528.73
0.837734
-1265.82
0.701331
-1048.19
0.595138
-868.05
0.512207
-718.964
0.447058
-595.597
0.395427
-493.536
0.353986
-409.13
0.320142
-339.361
0.291858
-281.732
0.267505
-234.181
0.245759
-195.008
0.225503
-162.811
0.205765
-136.437
0.185657
-114.943
0.164329
-97.5597
0.140935
-83.6656
0.114598
-72.7633
0.0844095
-64.4632
0.0493982
-58.4675
0.00870873
-54.5621
-0.0384007
-52.6053
-0.0912942
-52.3399
-0.126883
-41.7588
-0.14758
-33.3175
-0.156025
-26.5832
-0.154811
-21.2135
-0.146488
-16.9336
-0.133377
-13.5239
-0.11752
-10.8082
-0.100651
-8.64472
-0.0841647
-6.91988
-0.0690579
-5.54332
-0.0559151
-4.44361
-0.0449464
-3.56449
-0.0360797
-2.8618
-0.0290756
-2.30075
-0.0236278
-1.85387
-0.0194225
-1.49939
-0.0161803
-1.22003
-0.0136631
-1.00216
-0.0116797
-0.835048
-0.0100772
-0.71047
-0.00873423
-0.622253
-0.00757837
-0.56548
-0.538765
-0.00648563
1.63028
-2229.61
1.32645
-1846.03
1.0893
-1528.49
0.905496
-1265.64
0.763485
-1048.05
0.653759
-867.941
0.56874
-718.879
0.502462
-595.53
0.450292
-493.483
0.408645
-409.088
0.374734
-339.327
0.346381
-281.703
0.321856
-234.157
0.299749
-194.986
0.278878
-162.79
0.258205
-136.416
0.236779
-114.921
0.213681
-97.5366
0.187988
-83.6399
0.158729
-72.7341
0.12489
-64.4293
0.0853814
-58.428
0.0392153
-54.516
-0.0144614
-52.5517
-0.0750141
-52.2793
-0.115977
-41.7179
-0.140174
-33.2933
-0.150626
-26.5727
-0.150329
-21.2138
-0.142224
-16.9417
-0.128984
-13.5372
-0.112932
-10.8243
-0.0959908
-8.66166
-0.0796383
-6.93623
-0.0648672
-5.5581
-0.0522006
-4.45627
-0.0417675
-3.57492
-0.0334281
-2.87014
-0.026899
-2.30728
-0.0218536
-1.85892
-0.0179769
-1.50327
-0.0149925
-1.22301
-0.0126777
-1.00447
-0.0108465
-0.836879
-0.00936407
-0.711952
-0.00811155
-0.623506
-0.00702962
-0.566562
-0.539791
-0.00600357
1.74229
-2229.21
1.42051
-1845.7
1.17067
-1528.24
0.978288
-1265.44
0.830767
-1047.9
0.717734
-867.828
0.630908
-718.792
0.5638
-595.463
0.511396
-493.431
0.469824
-409.047
0.436094
-339.293
0.407879
-281.675
0.383341
-234.132
0.360983
-194.964
0.339551
-162.769
0.317942
-136.395
0.295139
-114.899
0.270146
-97.5116
0.241955
-83.6117
0.209498
-72.7016
0.171644
-64.3915
0.127168
-58.3835
0.0749393
-54.4638
0.0139689
-52.4907
-0.0551179
-52.2102
-0.102105
-41.6709
-0.130286
-33.2652
-0.143118
-26.5599
-0.144038
-21.2129
-0.136419
-16.9493
-0.123313
-13.5503
-0.107334
-10.8403
-0.0905819
-8.67841
-0.0746003
-6.95221
-0.0603588
-5.57234
-0.0483099
-4.46832
-0.0385048
-3.58473
-0.0307443
-2.8779
-0.0247163
-2.31331
-0.0200806
-1.86355
-0.0165314
-1.50682
-0.0137978
-1.22575
-0.0116763
-1.00659
-0.00998807
-0.838568
-0.00861611
-0.713324
-0.00744562
-0.624678
-0.00643031
-0.567577
-0.540759
-0.00546215
1.86085
-2228.77
1.52038
-1845.36
1.25746
-1527.98
1.0564
-1265.24
0.903471
-1047.75
0.78735
-867.712
0.699009
-718.704
0.631401
-595.396
0.579083
-493.379
0.537884
-409.006
0.504598
-339.26
0.47674
-281.647
0.452356
-234.108
0.429862
-194.941
0.407928
-162.747
0.385383
-136.372
0.361135
-114.874
0.334113
-97.4846
0.303216
-83.5808
0.267268
-72.6657
0.225008
-64.3492
0.175068
-58.3336
0.11615
-54.4048
0.047112
-52.4217
-0.0314488
-52.1317
-0.0851633
-41.6172
-0.117863
-33.2325
-0.133494
-26.5443
-0.135986
-21.2104
-0.129172
-16.9561
-0.116507
-13.5629
-0.100904
-10.8559
-0.0846223
-8.69469
-0.0692535
-6.96758
-0.0557289
-5.58586
-0.0444269
-4.47962
-0.035329
-3.59383
-0.0281895
-2.88504
-0.0226795
-2.31882
-0.0184569
-1.86777
-0.0152272
-1.51004
-0.012736
-1.22824
-0.010792
-1.00854
-0.0092356
-0.840124
-0.00795842
-0.714601
-0.00685893
-0.625777
-0.00590425
-0.568528
-0.541669
-0.00499146
1.98637
-2228.31
1.62641
-1845
1.35
-1527.71
1.14015
-1265.03
0.981902
-1047.59
0.862923
-867.593
0.773379
-718.614
0.705599
-595.328
0.653701
-493.327
0.613187
-408.965
0.580618
-339.227
0.553345
-281.62
0.529292
-234.084
0.506781
-194.919
0.484406
-162.724
0.460921
-136.349
0.435161
-114.849
0.405968
-97.4554
0.372143
-83.547
0.332392
-72.6259
0.285315
-64.3021
0.229384
-58.2776
0.163116
-54.3386
0.0851924
-52.3437
-0.00384606
-52.0426
-0.0650483
-41.556
-0.102851
-33.1947
-0.121755
-26.5253
-0.126222
-21.2059
-0.120584
-16.9618
-0.108715
-13.5748
-0.0938175
-10.8708
-0.0783026
-8.71021
-0.0637874
-6.9821
-0.051156
-5.59849
-0.0407162
-4.49006
-0.0323906
-3.60215
-0.0259046
-2.89152
-0.0209206
-2.3238
-0.0171101
-1.87158
-0.0141894
-1.51297
-0.0119308
-1.2305
-0.0101503
-1.01032
-0.00871537
-0.841559
-0.00751657
-0.7158
-0.00647749
-0.626816
-0.00556004
-0.569449
-0.542556
-0.00467629
2.11935
-2227.82
1.73907
-1844.62
1.44874
-1527.41
1.22997
-1264.81
1.06651
-1047.42
0.944921
-867.471
0.85449
-718.524
0.786894
-595.26
0.735769
-493.276
0.696267
-408.926
0.664704
-339.196
0.638256
-281.594
0.61472
-234.06
0.59232
-194.896
0.569568
-162.701
0.545142
-136.324
0.517796
-114.821
0.486284
-97.4239
0.4493
-83.51
0.405423
-72.5821
0.353099
-64.2498
0.290625
-58.2152
0.216314
-54.2643
0.128647
-52.2561
0.028067
-51.942
-0.0414404
-41.4865
-0.0849792
-33.1511
-0.10768
-26.5026
-0.114583
-21.199
-0.110541
-16.9658
-0.0998581
-13.5855
-0.0860234
-10.8846
-0.0715779
-8.72465
-0.0581503
-6.99552
-0.0465748
-5.61006
-0.0370961
-4.49954
-0.0295962
-3.60965
-0.0237851
-2.89733
-0.0193305
-2.32826
-0.0159231
-1.87499
-0.0132983
-1.51559
-0.011253
-1.23254
-0.0096208
-1.01195
-0.00828792
-0.842891
-0.00715511
-0.716932
-0.00616291
-0.627807
-0.00526769
-0.570341
-0.54342
-0.00440028
2.2603
-2227.3
1.85882
-1844.22
1.55409
-1527.11
1.32626
-1264.59
1.15769
-1047.26
1.03372
-867.347
0.942728
-718.433
0.87568
-595.193
0.825685
-493.226
0.787532
-408.887
0.757272
-339.165
0.731895
-281.568
0.709066
-234.038
0.686906
-194.874
0.663842
-162.678
0.638472
-136.299
0.609465
-114.792
0.57548
-97.3899
0.535096
-83.4696
0.486755
-72.5337
0.428738
-64.1918
0.359149
-58.1456
0.276075
-54.1812
0.177767
-52.1578
0.0645347
-51.8288
-0.0141501
-41.4078
-0.0641163
-33.1012
-0.0911894
-26.4756
-0.101041
-21.1892
-0.0990627
-16.9678
-0.0899928
-13.5946
-0.0775949
-10.897
-0.0645233
-8.73772
-0.0524078
-7.00764
-0.0420349
-5.62044
-0.0336027
-4.50797
-0.0269689
-3.61628
-0.0218481
-2.90245
-0.0179224
-2.33218
-0.0149117
-1.878
-0.0125729
-1.51793
-0.0107312
-1.23438
-0.00923508
-1.01345
-0.0079929
-0.844132
-0.00691368
-0.718011
-0.00595138
-0.628769
-0.00507304
-0.571221
-0.544281
-0.00421408
2.40973
-2226.76
1.9861
-1843.8
1.66647
-1526.79
1.42943
-1264.35
1.2558
-1047.08
1.1297
-867.221
1.03846
-718.342
0.972313
-595.127
0.923811
-493.177
0.887343
-408.851
0.858683
-339.137
0.834627
-281.544
0.812695
-234.016
0.790904