/*--------------------------------*- C++ -*----------------------------------*\
  =========                 |
  \\      /  F ield         | OpenFOAM: The Open Source CFD Toolbox
   \\    /   O peration     | Website:  https://openfoam.org
    \\  /    A nd           | Version:  10
     \\/     M anipulation  |
\*---------------------------------------------------------------------------*/
FoamFile
{
    format      ascii;
    class       volVectorField;
    location    "5";
    object      U;
}
// * * * * * * * * * * * * * * * * * * * * * * * * * * * * * * * * * * * * * //

dimensions      [0 1 -1 0 0 0 0];

internalField   nonuniform List<vector> 
38016
(
(94.086 -0.00280279 6.64394e-25)
(94.0869 -0.000849679 3.29803e-25)
(94.0883 -0.000650133 -3.98341e-25)
(94.0896 -0.00039154 0)
(94.0908 -0.000233692 0)
(94.0922 -0.000124193 0)
(94.0938 -3.22377e-05 -6.95437e-25)
(94.0957 6.3272e-05 -7.2891e-21)
(94.098 0.000160444 1.39301e-24)
(94.1006 0.000314844 -1.6804e-24)
(94.1038 0.00053464 -5.31542e-21)
(94.1075 0.000857674 6.67758e-25)
(94.1117 0.00142086 -5.4857e-21)
(94.1165 0.00226877 -7.77424e-21)
(94.1216 0.00350181 5.43718e-21)
(94.1267 0.00537961 0)
(94.1317 0.00796394 0)
(94.1357 0.0115402 0)
(94.1379 0.0164253 -9.49128e-24)
(94.1371 0.0230242 1.09071e-23)
(94.1312 0.0318609 -3.70924e-21)
(94.1178 0.044201 4.53791e-21)
(94.0907 0.0616722 -5.59917e-21)
(94.0462 0.0853897 2.6225e-23)
(93.9508 0.121515 -7.24164e-21)
(93.8155 0.176115 8.87656e-26)
(93.6253 0.245416 -5.38844e-21)
(93.3817 0.326197 6.60217e-23)
(93.0864 0.417275 1.31033e-25)
(92.7496 0.515844 0)
(92.3827 0.62195 1.75127e-25)
(91.9965 0.736207 3.0356e-22)
(91.6005 0.859299 -1.35249e-20)
(91.2017 0.991779 0)
(90.8064 1.13359 0)
(90.4192 1.28379 0)
(90.0441 1.44067 0)
(89.6847 1.60153 -4.0825e-21)
(89.3432 1.7636 -2.71956e-21)
(89.0218 1.92414 -1.20729e-22)
(88.7216 2.08057 -1.22475e-22)
(88.4435 2.23098 8.28865e-21)
(88.1859 2.37417 -1.735e-21)
(87.9457 2.51015 2.11008e-21)
(87.7174 2.63937 0)
(87.4884 2.77329 0)
(87.2595 2.81899 -1.25606e-20)
(86.9888 2.98458 1.15506e-20)
(94.086 -0.00285744 -4.42907e-20)
(94.0869 -0.000879882 1.32978e-24)
(94.0883 -0.000684059 2.75448e-20)
(94.0896 -0.00042662 0)
(94.0908 -0.000271869 0)
(94.0922 -0.000166821 -1.54132e-20)
(94.0938 -8.06963e-05 4.34793e-26)
(94.0957 7.41553e-06 7.29006e-21)
(94.098 9.60521e-05 -1.02999e-20)
(94.1006 0.000240023 -9.9926e-25)
(94.1038 0.000448197 -5.29295e-21)
(94.1075 0.000759621 -2.06459e-24)
(94.1117 0.00131162 5.48328e-21)
(94.1166 0.00215195 7.77017e-21)
(94.1217 0.0033864 -5.43224e-21)
(94.1269 0.00528117 1.4964e-20)
(94.132 0.00790976 1.02244e-20)
(94.1361 0.0115783 -1.43375e-23)
(94.1384 0.0166334 -2.15368e-24)
(94.1379 0.0235327 2.16788e-23)
(94.1324 0.0328793 1.10723e-20)
(94.1197 0.0461178 -1.35381e-20)
(94.0937 0.0651325 5.6214e-21)
(94.0496 0.0916801 1.21725e-20)
(93.9571 0.133028 -7.09511e-21)
(93.8191 0.19659 -2.84509e-23)
(93.6246 0.278986 5.31894e-21)
(93.3771 0.377028 1.95164e-20)
(93.0797 0.489449 -1.72578e-20)
(92.7435 0.612895 0)
(92.3802 0.747153 0)
(92.0006 0.892648 1.79783e-20)
(91.6135 1.04998 1.3138e-20)
(91.2257 1.21961 -1.91151e-20)
(90.8428 1.40128 0)
(90.469 1.59367 1.84272e-20)
(90.108 1.79456 0)
(89.7628 2.00058 4.07823e-21)
(89.4354 2.20825 -5.52668e-21)
(89.1279 2.41416 6.87909e-21)
(88.8409 2.61516 -9.00498e-21)
(88.5753 2.80894 -2.792e-21)
(88.3294 2.99412 -1.78987e-21)
(88.0999 3.17064 2.17715e-21)
(87.8804 3.33956 0)
(87.6556 3.51732 0)
(87.437 3.58196 -9.55273e-21)
(87.135 3.78944 1.17183e-20)
(94.086 -0.0029147 -5.30813e-22)
(94.087 -0.000910974 0)
(94.0883 -0.000718746 -5.52937e-20)
(94.0896 -0.000462239 0)
(94.0908 -0.000310492 0)
(94.0923 -0.000209879 1.54132e-20)
(94.0938 -0.000129625 -3.47939e-25)
(94.0958 -4.89683e-05 5.41864e-25)
(94.098 3.09977e-05 1.03e-20)
(94.1007 0.000164365 -9.97152e-25)
(94.1039 0.000360726 1.06139e-20)
(94.1076 0.000660279 1.52221e-20)
(94.1118 0.00120086 -2.17947e-20)
(94.1166 0.00203338 -1.52988e-23)
(94.1217 0.003269 9.88645e-24)
(94.127 0.00518051 -1.49556e-20)
(94.1321 0.00785337 -1.02225e-20)
(94.1362 0.0116143 1.66072e-24)
(94.1386 0.0168397 -1.66138e-23)
(94.138 0.0240404 0)
(94.1325 0.0338998 -2.19709e-20)
(94.1196 0.0480377 8.99903e-21)
(94.0928 0.0686165 -1.10037e-20)
(94.0468 0.0978441 -2.41647e-20)
(93.96 0.144224 1.5592e-22)
(93.8229 0.216504 0)
(93.6289 0.311522 2.12126e-20)
(93.3818 0.426202 -1.93488e-20)
(93.0848 0.559127 1.71309e-20)
(92.7491 0.706452 0)
(92.3868 0.86769 8.26854e-22)
(92.0089 1.04307 1.60466e-20)
(91.6242 1.23312 3.36642e-21)
(91.2397 1.43825 1.42603e-20)
(90.8607 1.658 -2.38784e-20)
(90.4918 1.8907 -1.83894e-20)
(90.1362 2.13367 0)
(89.7971 2.38299 -1.67301e-20)
(89.4762 2.63454 5.58371e-21)
(89.1756 2.88437 -6.94535e-21)
(88.896 3.12881 1.81209e-20)
(88.638 3.36529 -1.12534e-20)
(88.3999 3.59234 1.77219e-20)
(88.1782 3.80995 -4.02785e-21)
(87.9658 4.02057 1.90756e-22)
(87.7465 4.2432 -2.9098e-20)
(87.5448 4.33929 4.41002e-23)
(87.2258 4.59289 -2.37982e-20)
(94.086 -0.00297475 1.35516e-19)
(94.0869 -0.000942846 0)
(94.0883 -0.000754093 2.77439e-20)
(94.0896 -0.000498344 4.23074e-24)
(94.0908 -0.000349535 4.67257e-20)
(94.0922 -0.000253334 -1.01304e-24)
(94.0938 -0.000178965 -2.11116e-20)
(94.0958 -0.000105817 0)
(94.098 -3.46108e-05 -2.05532e-20)
(94.1007 8.80745e-05 0)
(94.1039 0.000272525 2.11295e-20)
(94.1076 0.000560114 -1.52257e-20)
(94.1118 0.0010892 2.17947e-20)
(94.1166 0.00191385 7.02176e-24)
(94.1217 0.00315054 2.15004e-20)
(94.127 0.0050785 2.96827e-20)
(94.1321 0.0077949 -2.12732e-23)
(94.1362 0.0116465 2.50544e-23)
(94.1387 0.0170379 0)
(94.1382 0.0245313 -2.29875e-20)
(94.1327 0.0348864 2.90953e-20)
(94.1199 0.0498894 -1.76734e-20)
(94.0936 0.0719617 3.27089e-20)
(94.0485 0.103776 1.20685e-20)
(93.9612 0.15498 1.40722e-20)
(93.8255 0.235551 1.12488e-22)
(93.6335 0.342597 -2.45647e-22)
(93.3887 0.473141 -3.91169e-20)
(93.0941 0.625648 3.50101e-20)
(92.7605 0.795817 0)
(92.4001 0.982914 0)
(92.0238 1.18699 3.18952e-22)
(91.6407 1.40853 -2.70925e-20)
(91.2578 1.64789 0)
(90.881 1.90443 2.70427e-20)
(90.5148 2.17618 0)
(90.1629 2.46004 0)
(89.8284 2.75158 1.6676e-20)
(89.5133 3.04617 -1.08511e-20)
(89.2195 3.33934 -1.41791e-20)
(88.9478 3.627 1.79207e-20)
(88.6986 3.90631 1.14912e-20)
(88.4705 4.17566 2.85737e-20)
(88.2597 4.43513 -3.4173e-20)
(88.0591 4.68839 0)
(87.8548 4.95139 -6.3662e-23)
(87.6735 5.08819 -5.47351e-20)
(87.3625 5.38881 5.43311e-20)
(94.086 -0.00303766 -9.07009e-20)
(94.087 -0.000975703 -5.44599e-24)
(94.0883 -0.00079026 5.63032e-20)
(94.0896 -0.000535056 -3.57565e-20)
(94.0908 -0.000389091 -4.67258e-20)
(94.0923 -0.000297278 -3.10597e-20)
(94.0938 -0.000228809 -2.1157e-20)
(94.0958 -0.000163193 0)
(94.098 -0.000100793 2.05539e-20)
(94.1007 1.11569e-05 -4.17497e-25)
(94.1039 0.000183698 -2.11243e-20)
(94.1076 0.000459382 -3.4379e-24)
(94.1118 0.000977158 0)
(94.1166 0.00179432 8.19828e-24)
(94.1218 0.00303279 -2.15102e-20)
(94.1271 0.00497828 -2.96823e-20)
(94.1322 0.00773967 -2.01529e-20)
(94.1363 0.0116838 2.68502e-20)
(94.1388 0.0172435 0)
(94.1384 0.0250317 4.58036e-20)
(94.133 0.0358838 -1.44871e-20)
(94.1203 0.0517553 1.77084e-20)
(94.0942 0.0753155 -4.3254e-20)
(94.0492 0.109729 -4.99953e-23)
(93.9622 0.16577 5.02178e-23)
(93.8272 0.254675 1.11554e-22)
(93.6361 0.373834 -4.23997e-20)
(93.3927 0.520366 3.93648e-20)
(93.0997 0.69267 7.01902e-23)
(92.7682 0.885976 0)
(92.4102 1.09931 -1.67778e-21)
(92.0371 1.33256 -3.44305e-20)
(91.6582 1.58616 2.70618e-20)
(91.2807 1.86037 0)
(90.9107 2.15439 0)
(90.5529 2.46592 -3.78217e-20)
(90.2111 2.79141 1.31607e-20)
(89.8885 3.12593 -1.64518e-20)
(89.587 3.46426 -6.18053e-22)
(89.3086 3.8014 2.82601e-20)
(89.0541 4.13277 -1.83346e-20)
(88.8238 4.45512 -2.29638e-20)
(88.6164 4.76656 -5.73653e-20)
(88.4283 5.06704 7.72314e-20)
(88.2526 5.36053 8.21021e-20)
(88.0787 5.65727 -9.35052e-20)
(87.9261 5.84158 -6.49165e-21)
(87.6465 6.18685 -6.88133e-21)
(94.086 -0.00310363 0)
(94.087 -0.00100951 0)
(94.0883 -0.000827262 -5.62933e-20)
(94.0896 -0.000572416 3.57524e-20)
(94.0908 -0.000429214 0)
(94.0922 -0.000341752 3.106e-20)
(94.0938 -0.000279184 4.22717e-20)
(94.0958 -0.00022113 -1.68165e-24)
(94.098 -0.000167585 0)
(94.1007 -6.63794e-05 0)
(94.1039 9.42833e-05 -4.20568e-20)
(94.1076 0.000358204 0)
(94.1118 0.000865047 0)
(94.1166 0.00167548 -3.05872e-20)
(94.1218 0.00291707 -4.26895e-20)
(94.1271 0.00488242 2.94348e-20)
(94.1322 0.00769249 2.01318e-20)
(94.1364 0.011735 -5.34955e-20)
(94.1389 0.0174719 -3.26259e-23)
(94.1385 0.0255689 -2.27698e-20)
(94.1333 0.0369398 2.84355e-20)
(94.1207 0.0537171 0)
(94.0948 0.0788228 2.14863e-20)
(94.0501 0.11595 0)
(93.9636 0.177042 0)
(93.8297 0.274672 -1.1049e-22)
(93.6402 0.406534 6.26553e-20)
(93.3988 0.569852 -3.89172e-20)
(93.1084 0.762989 -3.50512e-20)
(92.78 0.980661 0)
(92.426 1.22164 -4.63957e-20)
(92.0578 1.48563 -2.12016e-21)
(91.6849 1.77298 -5.85849e-20)
(91.315 2.08381 -2.9595e-20)
(90.9543 2.41709 -1.38491e-20)
(90.6079 2.77015 8.49158e-20)
(90.2796 3.13887 -1.32427e-20)
(89.9729 3.51774 1.65488e-20)
(89.6897 3.90084 2.23266e-20)
(89.4321 4.28248 -4.36154e-20)
(89.2007 4.65745 5.44594e-20)
(88.996 5.02186 4.65776e-20)
(88.8165 5.37328 -7.09214e-20)
(88.6589 5.71132 -8.62774e-21)
(88.5167 6.0395 8.24475e-20)
(88.3811 6.36288 -8.79938e-20)
(88.2638 6.59453 6.46957e-21)
(88.034 6.97094 6.86047e-21)
(94.086 -0.00317271 -1.1549e-23)
(94.087 -0.00104446 0)
(94.0883 -0.000865273 5.71138e-20)
(94.0896 -0.000610551 -8.62324e-24)
(94.0908 -0.000470011 6.06568e-24)
(94.0923 -0.000386874 -1.1397e-23)
(94.0938 -0.000330227 -4.23566e-20)
(94.0958 -0.000279769 5.82562e-20)
(94.098 -0.00023514 0)
(94.1007 -0.000144732 -5.84953e-20)
(94.1039 4.05725e-06 4.20586e-20)
(94.1076 0.00025633 4.07213e-24)
(94.1118 0.000752629 -4.89857e-24)
(94.1167 0.00155717 3.05881e-20)
(94.1218 0.00280344 4.26793e-20)
(94.1271 0.00479146 -2.94063e-20)
(94.1323 0.00765487 -1.84109e-23)
(94.1365 0.0118034 2.66706e-20)
(94.1391 0.01773 3.24236e-23)
(94.1387 0.0261556 0)
(94.1336 0.0380772 -2.85462e-20)
(94.1212 0.0558144 -3.42707e-20)
(94.0955 0.0825562 0)
(94.0511 0.122558 0)
(93.9654 0.188999 1.21632e-22)
(93.8327 0.295876 -1.52568e-22)
(93.6451 0.441217 -4.15573e-20)
(93.4063 0.622361 3.89064e-20)
(93.1193 0.837631 6.5691e-22)
(92.795 1.08119 -1.90642e-21)
(92.446 1.35152 5.11064e-20)
(92.084 1.64808 -7.38857e-20)
(91.719 1.97109 5.16303e-20)
(91.3588 2.32048 7.90987e-20)
(91.0101 2.69486 0)
(90.6782 3.0911 -3.79803e-20)
(90.3672 3.50437 -1.33018e-20)
(90.0806 3.9284 5.08204e-20)
(89.8206 4.35641 -4.46544e-20)
(89.5891 4.78182 2.89128e-20)
(89.3868 5.19852 0)
(89.2139 5.60177 1.15305e-20)
(89.0689 5.98843 -6.43229e-23)
(88.9481 6.35756 -6.99128e-20)
(88.8452 6.7122 1.74842e-19)
(88.7524 7.05325 7.07875e-22)
(88.6751 7.32597 -1.04272e-19)
(88.5054 7.71377 1.39354e-20)
(94.086 -0.0032451 1.89925e-19)
(94.087 -0.00108048 -8.70755e-20)
(94.0883 -0.000904273 5.79e-20)
(94.0896 -0.00064948 7.27404e-20)
(94.0908 -0.000511531 -4.91814e-25)
(94.0922 -0.000432697 7.34788e-24)
(94.0938 -0.000381997 8.47657e-20)
(94.0958 -0.000339202 -5.82592e-20)
(94.098 -0.000303589 9.65864e-25)
(94.1007 -0.000224042 5.8499e-20)
(94.1039 -8.71659e-05 0)
(94.1076 0.00015354 -6.00853e-20)
(94.1118 0.000639656 -5.77547e-24)
(94.1167 0.00143913 6.9348e-24)
(94.1219 0.00269171 1.12567e-23)
(94.1272 0.00470539 5.83578e-20)
(94.1324 0.00762723 2.08198e-23)
(94.1366 0.0118902 -2.45195e-23)
(94.1392 0.0180202 0)
(94.1389 0.0267965 0)
(94.1339 0.0393047 0)
(94.1217 0.0580617 3.44056e-20)
(94.0963 0.0865413 6.70129e-24)
(94.0523 0.129593 -2.2516e-20)
(93.9674 0.201704 0)
(93.8362 0.318384 0)
(93.6509 0.478021 0)
(93.4151 0.678082 3.85162e-20)
(93.1321 0.916838 -6.9937e-20)
(92.8127 1.18785 6.19664e-20)
(92.4698 1.48924 4.21882e-20)
(92.1154 1.82019 8.36397e-20)
(91.7599 2.18069 4.88571e-20)
(91.4115 2.57038 -3.96149e-20)
(91.0774 2.9874 0)
(90.7631 3.42797 0)
(90.473 3.8864 -2.49423e-20)
(90.2109 4.35543 -3.31927e-20)
(89.9789 4.82719 2.23272e-20)
(89.7789 5.29395 -2.88317e-20)
(89.6112 5.7485 7.46526e-20)
(89.4756 6.18508 -1.85067e-19)
(89.3699 6.59977 1.27777e-19)
(89.2899 6.99117 0)
(89.229 7.36227 -1.65548e-19)
(89.18 7.71024 1.88585e-19)
(89.1437 8.01427 1.31356e-20)
(89.0365 8.3931 -1.39032e-20)
(94.086 -0.00332084 -3.82048e-19)
(94.087 -0.00111776 8.71012e-20)
(94.0883 -0.000944414 -1.15009e-19)
(94.0896 -0.000689316 -7.27464e-20)
(94.0908 -0.000553865 0)
(94.0923 -0.00047933 4.08562e-24)
(94.0938 -0.000434625 4.24871e-20)
(94.0958 -0.000399563 0)
(94.098 -0.00037308 -8.17457e-20)
(94.1007 -0.000304496 0)
(94.1039 -0.000179593 1.41273e-24)
(94.1076 4.95952e-05 6.00868e-20)
(94.1118 0.000525875 0)
(94.1167 0.00132113 0)
(94.1219 0.00258171 1.12112e-23)
(94.1272 0.00462423 -5.84021e-20)
(94.1324 0.00760989 1.8237e-23)
(94.1367 0.0119964 -5.2479e-20)
(94.1394 0.0183443 0)
(94.1392 0.027495 0)
(94.1343 0.0406281 0)
(94.1222 0.0604686 -7.08159e-23)
(94.0971 0.0907936 7.58064e-23)
(94.0536 0.13708 2.24286e-20)
(93.9697 0.215195 0)
(93.8401 0.342252 0)
(93.6576 0.51703 3.97834e-20)
(93.4254 0.737125 -7.62262e-20)
(93.1469 1.00074 2.36807e-22)
(92.8333 1.30078 -5.97697e-20)
(92.4976 1.63494 -4.8276e-20)
(92.1523 2.00202 7.45564e-20)
(91.8081 2.4017 -5.52312e-20)
(91.4738 2.83317 0)
(91.157 3.29397 0)
(90.8637 3.77945 9.65554e-20)
(90.5986 4.28279 -2.5056e-20)
(90.3655 4.79552 -3.41596e-20)
(90.1663 5.30841 4.47131e-20)
(90.0027 5.81235 2.88441e-20)
(89.8744 6.29889 -7.45219e-20)
(89.78 6.76124 9.13545e-20)
(89.7164 7.19491 0)
(89.6784 7.59843 0)
(89.659 7.9753 -3.08411e-20)
(89.6516 8.31907 0)
(89.6536 8.64395 -2.62434e-20)
(89.6047 8.9963 0)
(94.086 -0.00340013 1.92081e-19)
(94.087 -0.00115623 0)
(94.0883 -0.000985672 -1.16653e-19)
(94.0896 -0.000730073 -7.35555e-20)
(94.0908 -0.000597062 -9.57088e-20)
(94.0922 -0.000526822 -8.18483e-24)
(94.0938 -0.000488169 -1.69869e-19)
(94.0958 -0.000460943 -1.06134e-23)
(94.098 -0.000443732 8.17498e-20)
(94.1007 -0.000386229 3.31378e-24)
(94.1039 -0.000273392 8.33311e-20)
(94.1076 -5.57029e-05 0)
(94.1118 0.000411071 0)
(94.1167 0.00120296 0)
(94.1219 0.0024733 -4.20647e-20)
(94.1272 0.00454801 5.78867e-20)
(94.1325 0.00760329 -3.93178e-20)
(94.1368 0.012123 5.25082e-20)
(94.1395 0.0187045 -3.18119e-23)
(94.1394 0.0282551 0)
(94.1347 0.0420541 5.68034e-23)
(94.1228 0.0630457 -6.25673e-23)
(94.0981 0.09533 0)
(94.055 0.145046 -4.34623e-20)
(93.9724 0.229514 1.15405e-22)
(93.8446 0.367541 -1.44732e-22)
(93.6653 0.558328 -4.01821e-20)
(93.4371 0.799601 3.35275e-22)
(93.1641 1.08948 6.83376e-20)
(92.8572 1.42012 6.11781e-20)
(92.53 1.78871 3.40254e-21)
(92.1953 2.19357 -7.87643e-20)
(91.8645 2.63394 0)
(91.5469 3.10838 0)
(91.2505 3.61359 -5.5759e-20)
(90.9819 4.14383 -7.64529e-20)
(90.7458 4.69086 5.14822e-20)
(90.546 5.24474 3.40921e-20)
(90.3843 5.79462 -5.81449e-23)
(90.2613 6.32988 -5.7477e-20)
(90.1758 6.84085 7.42297e-20)
(90.1248 7.32 2.00021e-21)
(90.1037 7.76269 -8.44218e-20)
(90.1061 8.16792 -1.72589e-20)
(90.1247 8.54039 2.05148e-20)
(90.1543 8.86994 -1.89921e-19)
(90.1884 9.20644 4.32868e-19)
(90.1897 9.51925 -2.22385e-19)
(94.0861 -0.00348303 -2.05441e-23)
(94.087 -0.00119608 -1.78584e-19)
(94.0884 -0.0010282 2.34103e-19)
(94.0896 -0.000771868 7.35657e-20)
(94.0908 -0.000641215 9.57165e-20)
(94.0923 -0.000575287 7.41697e-24)
(94.0938 -0.000542759 8.4983e-20)
(94.0958 -0.000523479 6.73756e-24)
(94.098 -0.000515699 -2.74256e-24)
(94.1007 -0.00046944 3.30853e-24)
(94.1039 -0.000368785 -1.99286e-22)
(94.1076 -0.000162607 1.05815e-25)
(94.1118 0.000294981 0)
(94.1167 0.00108439 -6.01707e-20)
(94.1219 0.00236635 4.20577e-20)
(94.1273 0.0044768 -5.78748e-20)
(94.1326 0.00760785 3.93019e-20)
(94.1369 0.0122712 5.18643e-20)
(94.1397 0.0191033 3.53851e-23)
(94.1397 0.0290809 4.55868e-24)
(94.1351 0.0435897 5.24478e-24)
(94.1234 0.0658047 3.28167e-20)
(94.0991 0.100169 7.40188e-23)
(94.0567 0.153517 4.34624e-20)
(93.9753 0.244701 0)
(93.8497 0.394311 -2.06159e-22)
(93.674 0.601997 2.58642e-22)
(93.4506 0.865612 -3.78158e-20)
(93.1839 1.18315 9.2858e-22)
(92.8849 1.54596 -2.48958e-22)
(92.5676 1.9506 9.61498e-20)
(92.2453 2.39477 -7.94202e-20)
(91.9301 2.87707 6.43093e-21)
(91.6319 3.39527 -8.99417e-20)
(91.3593 3.94493 6.89296e-20)
(91.1191 4.51895 0)
(90.9162 5.1074 0)
(90.754 5.69854 3.38015e-20)
(90.6335 6.27982 -4.33583e-20)
(90.5542 6.8391 2.05184e-21)
(90.513 7.36578 -1.81887e-19)
(90.5053 7.85208 9.04459e-20)
(90.5244 8.29388 -2.83364e-20)
(90.5634 8.69126 1.7215e-20)
(90.6142 9.05067 1.64244e-19)
(90.674 9.35803 -1.87203e-19)
(90.7326 9.69919 0)
(90.7746 9.96414 -2.23786e-19)
(94.086 -0.00356973 -3.97068e-19)
(94.087 -0.00123722 -1.81553e-19)
(94.0884 -0.00107198 -1.17452e-19)
(94.0896 -0.000814716 1.48779e-19)
(94.0908 -0.000686376 -1.13958e-23)
(94.0922 -0.000624775 -1.26442e-19)
(94.0938 -0.00059846 0)
(94.0958 -0.000587267 1.16405e-19)
(94.098 -0.000589105 8.14784e-20)
(94.1007 -0.00055427 5.79508e-20)
(94.1039 -0.000465943 -1.66077e-19)
(94.1076 -0.000271317 -8.44365e-25)
(94.1119 0.000177364 0)
(94.1167 0.000965189 1.20164e-19)
(94.122 0.0022607 8.35059e-20)
(94.1273 0.00441066 5.73874e-20)
(94.1326 0.00762412 -1.79751e-23)
(94.137 0.0124422 -5.1868e-20)
(94.1399 0.019543 0)
(94.1399 0.029977 4.48217e-23)
(94.1355 0.0452426 -5.05497e-23)
(94.124 0.0687576 -3.28813e-20)
(94.1003 0.105329 -7.31109e-23)
(94.0585 0.162522 8.8669e-23)
(93.9787 0.260799 -2.41143e-20)
(93.8555 0.42262 -3.86517e-20)
(93.684 0.64811 3.77438e-20)
(93.466 0.935243 1.48929e-19)
(93.2065 1.28185 2.58579e-21)
(92.9167 1.67836 -5.81735e-20)
(92.6108 2.12056 -1.0147e-19)
(92.303 2.60536 2.68076e-22)
(92.0058 3.13056 1.0986e-19)
(91.7301 3.69281 7.92457e-20)
(91.4846 4.28629 -2.91538e-20)
(91.2766 4.9022 1.51707e-19)
(91.1107 5.52861 5.41723e-20)
(90.9897 6.15188 -6.6131e-20)
(90.9134 6.7577 4.41413e-20)
(90.8792 7.3327 8.73037e-20)
(90.8821 7.86586 -2.52618e-19)
(90.9152 8.34987 1.79427e-19)
(90.9704 8.78177 -2.26525e-19)
(91.0397 9.16335 5.62965e-19)
(91.1161 9.50311 -3.22298e-19)
(91.1983 9.78279 0)
(91.2735 10.1241 -4.44177e-19)
(91.3466 10.3367 4.54565e-19)
(94.0861 -0.00366031 3.97075e-19)
(94.087 -0.00127986 5.41754e-19)
(94.0884 -0.00111716 -1.19113e-19)
(94.0896 -0.000858736 -2.98349e-19)
(94.0908 -0.00073264 0)
(94.0923 -0.000675403 1.26446e-19)
(94.0938 -0.000655405 0)
(94.0958 -0.000652449 -1.16409e-19)
(94.098 -0.000664116 -8.14757e-20)
(94.1007 -0.000640928 -5.79594e-20)
(94.1039 -0.000565115 1.65687e-19)
(94.1076 -0.000382103 5.92891e-20)
(94.1119 5.79197e-05 -8.47059e-20)
(94.1167 0.000845077 -5.99861e-20)
(94.122 0.00215618 -8.35022e-20)
(94.1274 0.00434968 -5.73906e-20)
(94.1327 0.0076526 0)
(94.1371 0.0126375 0)
(94.14 0.0200266 -3.48525e-23)
(94.1402 0.0309484 -4.28224e-20)
(94.136 0.0470209 5.34476e-20)
(94.1248 0.0719173 0)
(94.1016 0.11083 0)
(94.0605 0.172091 0)
(93.9824 0.277849 4.72515e-20)
(93.8621 0.452519 7.7431e-20)
(93.6953 0.69673 -3.82459e-20)
(93.4835 1.00855 -7.39795e-20)
(93.2324 1.3856 0)
(92.9531 1.81728 0)
(92.6604 2.29843 -6.72731e-21)
(92.3692 2.82498 8.23277e-20)
(92.0927 3.39363 -1.09724e-19)
(91.8424 3.99968 2.0949e-20)
(91.6276 4.63556 -8.10942e-20)
(91.4554 5.29048 -7.55272e-20)
(91.33 5.95033 -3.51081e-22)
(91.2529 6.59946 -6.71102e-20)
(91.2222 7.22204 0)
(91.2329 7.80398 2.26523e-19)
(91.2775 8.33457 -1.76588e-19)
(91.3471 8.80771 0)
(91.4325 9.22226 0)
(91.5254 9.58206 -1.69634e-20)
(91.6198 9.89776 0)
(91.717 10.1467 -2.30943e-20)
(91.8014 10.4856 2.58839e-20)
(91.897 10.6445 -1.37749e-20)
(94.0861 -0.00375496 -4.05717e-19)
(94.087 -0.00132392 1.47987e-21)
(94.0884 -0.00116373 -1.20705e-19)
(94.0896 -0.000903946 3.00033e-19)
(94.0908 -0.000780062 -9.72289e-20)
(94.0922 -0.000727227 -1.49731e-23)
(94.0938 -0.000713664 0)
(94.0957 -0.000719127 7.73346e-24)
(94.098 -0.000740863 -9.33319e-24)
(94.1007 -0.000729569 0)
(94.1039 -0.000666498 -1.98657e-22)
(94.1076 -0.000495181 -5.92927e-20)
(94.1119 -6.36002e-05 8.4713e-20)
(94.1168 0.000723784 -1.19178e-19)
(94.122 0.00205262 0)
(94.1274 0.0042939 0)
(94.1328 0.00769388 0)
(94.1372 0.0128584 0)
(94.1402 0.0205568 3.45868e-23)
(94.1405 0.0320001 4.2828e-20)
(94.1365 0.0489333 -1.06392e-19)
(94.1256 0.0752974 -6.65867e-23)
(94.103 0.116693 7.12757e-23)
(94.0627 0.182252 -4.05088e-20)
(93.9866 0.295888 -2.34431e-20)
(93.8695 0.484055 -7.52043e-20)
(93.708 0.747903 7.57748e-22)
(93.5034 1.08558 -9.50726e-22)
(93.2618 1.49441 6.65763e-20)
(92.9946 1.96262 0)
(92.717 2.48395 0)
(92.4447 3.05305 -8.29131e-20)
(92.1916 3.66528 1.26418e-20)
(91.9699 4.31423 -2.07733e-20)
(91.7891 4.99027 1.89385e-19)
(91.656 5.68035 -7.42413e-20)
(91.5738 6.36806 -5.02695e-20)
(91.5423 7.03591 6.78832e-20)
(91.5572 7.66697 -2.15341e-19)
(91.6108 8.24717 -1.14623e-19)
(91.6932 8.76691 3.16749e-20)
(91.7937 9.22199 3.98937e-19)
(91.9024 9.61355 -2.17771e-19)
(92.0117 9.94757 3.02726e-19)
(92.1168 10.2367 -3.15998e-19)
(92.2223 10.4536 -3.23683e-19)
(92.3096 10.7891 4.06602e-19)
(92.4204 10.895 0)
(94.0861 -0.00385376 8.1574e-19)
(94.087 -0.0013696 -3.67522e-19)
(94.0884 -0.00121184 2.39748e-19)
(94.0896 -0.000950469 8.18485e-22)
(94.0908 -0.000828739 9.72331e-20)
(94.0923 -0.000780365 3.15254e-23)
(94.0938 -0.000773374 -1.99297e-23)
(94.0958 -0.00078745 1.16367e-19)
(94.098 -0.00081952 1.09011e-23)
(94.1007 -0.000820411 -1.31506e-23)
(94.1039 -0.000770348 -8.25559e-20)
(94.1076 -0.000610852 4.7127e-24)
(94.1119 -0.000187498 -8.42069e-20)
(94.1168 0.000600976 3.97867e-22)
(94.122 0.00194977 8.25862e-20)
(94.1275 0.00424334 1.4929e-23)
(94.1329 0.00774845 -1.77151e-23)
(94.1374 0.0131065 0)
(94.1405 0.0211367 3.43223e-23)
(94.1409 0.0331376 4.19709e-24)
(94.1371 0.0509886 5.28969e-20)
(94.1265 0.0789118 0)
(94.1046 0.122939 -3.76598e-20)
(94.0653 0.193034 8.00947e-20)
(93.9913 0.314955 1.66695e-22)
(93.8778 0.517269 3.71005e-20)
(93.7224 0.801663 -3.57068e-20)
(93.5259 1.16633 1.40758e-21)
(93.2951 1.6082 -5.25699e-21)
(93.0416 2.11421 3.14484e-21)
(92.7812 2.6767 6.60904e-21)
(92.5302 3.28883 1.36503e-19)
(92.3035 3.94425 -1.06986e-19)
(92.1136 4.63452 -2.05515e-20)
(91.9699 5.34762 -8.26845e-20)
(91.8786 6.06806 1.47349e-19)
(91.8415 6.77721 4.91204e-20)
(91.856 7.45609 0)
(91.9148 8.08734 5.19368e-22)
(92.0077 8.65771 5.50251e-20)
(92.1225 9.15953 0)
(92.2474 9.591 -4.3991e-20)
(92.3724 9.95572 2.69265e-20)
(92.4912 10.2617 -3.31803e-20)
(92.6007 10.5234 0)
(92.7086 10.7084 -2.27992e-20)
(92.7934 11.0403 0)
(92.9137 11.0955 0)
(94.0861 -0.00395693 -4.10068e-19)
(94.087 -0.00141684 3.70606e-19)
(94.0884 -0.00126148 -2.43048e-19)
(94.0896 -0.000998323 1.52887e-19)
(94.0908 -0.000878729 0)
(94.0922 -0.000834876 0)
(94.0938 -0.000834609 1.71062e-19)
(94.0957 -0.000857528 -1.16371e-19)
(94.098 -0.000900229 0)
(94.1007 -0.000913626 -7.75577e-24)
(94.1039 -0.00087688 9.35066e-24)
(94.1076 -0.000729383 -1.17625e-19)
(94.1119 -0.000314009 8.42119e-20)
(94.1168 0.00047642 1.18798e-19)
(94.1221 0.00184738 -3.14448e-22)
(94.1275 0.00419795 0)
(94.1329 0.00781679 0)
(94.1375 0.0133831 2.6248e-23)
(94.1407 0.0217692 -3.05909e-23)
(94.1412 0.0343664 -8.36908e-20)
(94.1377 0.0531963 4.87694e-23)
(94.1274 0.082775 0)
(94.1063 0.129589 7.46203e-20)
(94.0681 0.204466 -3.96015e-20)
(93.9966 0.335085 0)
(93.8871 0.552192 0)
(93.7386 0.858021 3.64311e-20)
(93.5513 1.25076 -6.96932e-20)
(93.3328 1.72686 -6.55394e-20)
(93.0948 2.27176 0)
(92.8536 2.87616 0)
(92.6267 3.53138 -8.77836e-22)
(92.4291 4.22903 1.3555e-19)
(92.274 4.95829 -3.59632e-20)
(92.1702 5.70452 1.05717e-19)
(92.1229 6.44972 -9.63678e-22)
(92.1317 7.17333 -1.49513e-19)
(92.1911 7.85538 6.15383e-20)
(92.2909 8.47893 -1.28661e-19)
(92.4182 9.03245 4.84089e-19)
(92.5593 9.51077 -2.70269e-19)
(92.7017 9.9148 0)
(92.8364 10.2505 -2.68634e-20)
(92.9584 10.5277 0)
(93.067 10.7624 6.61873e-19)
(93.1722 10.9165 -7.11217e-19)
(93.2511 11.2458 0)
(93.3763 11.2529 0)
(94.0861 -0.00406453 0)
(94.087 -0.00146581 -1.86044e-19)
(94.0884 -0.00131281 -1.61678e-21)
(94.0896 -0.00104763 -3.04171e-19)
(94.0908 -0.000930132 -1.96776e-19)
(94.0922 -0.000890882 1.2807e-19)
(94.0938 -0.000897513 -1.7107e-19)
(94.0957 -0.000929515 -1.54334e-23)
(94.098 -0.000983174 1.62057e-19)
(94.1007 -0.00100945 -1.14824e-19)
(94.1039 -0.000986371 1.74161e-24)
(94.1076 -0.000851092 1.17614e-19)
(94.1119 -0.000443526 5.61314e-24)
(94.1168 0.000349868 1.17996e-19)
(94.1221 0.00174525 -8.22854e-20)
(94.1276 0.00415762 -1.12307e-19)
(94.133 0.00789922 8.77265e-24)
(94.1377 0.0136896 0)
(94.1409 0.0224573 0)
(94.1416 0.0356918 8.37109e-20)
(94.1384 0.0555654 -4.83313e-23)
(94.1285 0.0869015 -1.28006e-22)
(94.1082 0.136664 -3.69729e-20)
(94.0712 0.216576 -3.82051e-20)
(94.0025 0.356306 1.92654e-22)
(93.8976 0.588842 -2.41463e-22)
(93.7568 0.916964 -3.36667e-20)
(93.5799 1.33879 6.60614e-20)
(93.3752 1.85019 3.39837e-21)
(93.1546 2.43486 4.70354e-20)
(92.9351 3.0816 1.00453e-19)
(92.7348 3.77952 -9.04373e-20)
(92.5693 4.51783 2.43562e-20)
(92.4517 5.28302 3.99392e-20)
(92.3902 6.05768 -1.55466e-19)
(92.388 6.82142 -1.46298e-19)
(92.4423 7.55216 8.88937e-20)
(92.5442 8.22975 2.49219e-19)
(92.6808 8.83855 0)
(92.8368 9.36947 -5.32674e-20)
(92.9976 9.82025 3.06036e-19)
(93.151 10.1946 -2.92627e-19)
(93.2892 10.5006 -4.49566e-19)
(93.4091 10.7493 5.0733e-19)
(93.5122 10.958 -3.83593e-20)
(93.6113 11.083 0)
(93.6813 11.4107 2.43334e-20)
(93.808 11.3729 8.64447e-19)
(94.0861 -0.0041768 0)
(94.087 -0.00151647 0)
(94.0884 -0.00136582 2.44634e-19)
(94.0896 -0.00109842 1.53761e-19)
(94.0908 -0.000983009 1.96785e-19)
(94.0922 -0.000948447 3.15087e-22)
(94.0938 -0.000962163 0)
(94.0957 -0.00100353 0)
(94.098 -0.00106851 -1.62034e-19)
(94.1007 -0.00110806 2.19549e-22)
(94.1039 -0.00109906 -1.63522e-19)
(94.1076 -0.000976272 -1.33024e-23)
(94.1119 -0.000576381 -8.34599e-20)
(94.1168 0.000220995 -3.9448e-22)
(94.1221 0.00164335 0)
(94.1276 0.0041224 4.95298e-22)
(94.1331 0.00799601 7.65932e-24)
(94.1378 0.0140268 -1.15916e-23)
(94.1412 0.0232033 -3.35429e-23)
(94.1421 0.0371184 8.10131e-23)
(94.1391 0.0581044 -4.7899e-23)
(94.1297 0.0913046 6.10579e-20)
(94.1103 0.144185 -3.60519e-20)
(94.0747 0.229389 6.30292e-22)
(94.0091 0.378642 -2.01037e-20)
(93.9094 0.627223 -3.25484e-20)
(93.7771 0.978447 -2.53744e-22)
(93.6119 1.43029 -3.0918e-20)
(93.4227 1.97788 0)
(93.2217 2.60299 -1.09185e-19)
(93.0263 3.29212 -7.75297e-20)
(92.8552 4.03185 -1.58514e-20)
(92.7244 4.8086 1.01954e-19)
(92.6468 5.60596 -3.92225e-20)
(92.6292 6.40368 -5.28197e-20)
(92.6725 7.17929 -1.42317e-19)
(92.7706 7.90986 -1.0046e-19)
(92.9117 8.57592 5.82461e-20)
(93.0798 9.16399 1.64298e-19)
(93.2584 9.66797 -4.144e-19)
(93.4324 10.0887 2.26879e-19)
(93.5906 10.4323 2.9367e-19)
(93.7271 10.7088 -3.30824e-19)
(93.8406 10.9302 -5.05941e-19)
(93.9346 11.1145 6.30897e-19)
(94.0249 11.2126 2.14143e-20)
(94.0839 11.5397 -2.42986e-20)
(94.2095 11.4602 -8.49317e-19)
(94.0861 -0.00429381 -4.27597e-19)
(94.0871 -0.001569 1.01889e-22)
(94.0884 -0.00142066 -5.84163e-23)
(94.0896 -0.00115081 -4.6284e-19)
(94.0908 -0.00103746 1.98306e-19)
(94.0922 -0.0010077 -1.28351e-19)
(94.0938 -0.00102871 2.3262e-24)
(94.0957 -0.00107973 -1.16159e-23)
(94.098 -0.00115643 -1.85988e-23)
(94.1007 -0.00120972 2.1917e-22)
(94.1039 -0.00121525 3.26681e-19)
(94.1076 -0.00110527 1.57403e-23)
(94.1119 -0.000712966 2.49864e-19)
(94.1168 8.9369e-05 -3.82841e-22)
(94.1221 0.00154145 1.41824e-24)
(94.1277 0.00409275 2.23144e-19)
(94.1332 0.0081078 -7.50201e-20)
(94.138 0.0143957 0)
(94.1415 0.024009 -1.66452e-23)
(94.1425 0.0386501 1.91278e-23)
(94.1399 0.0608202 -5.04436e-20)
(94.131 0.0959961 -7.00216e-22)
(94.1126 0.152169 3.60001e-20)
(94.0786 0.242926 3.74511e-20)
(94.0164 0.40211 3.98532e-20)
(93.9225 0.66732 4.75405e-20)
(93.7998 1.04239 6.47424e-20)
(93.6477 1.52507 6.42988e-20)
(93.4759 2.10956 4.65086e-21)
(93.2966 2.77546 4.81887e-20)
(93.1277 3.50665 -1.23971e-20)
(92.9886 4.28674 3.42659e-20)
(92.8951 5.09908 -9.80166e-20)
(92.8594 5.92418 -3.40886e-20)
(92.8865 6.73907 1.01656e-19)
(92.9744 7.51972 1.4024e-21)
(93.1138 8.24314 0)
(93.2894 8.89144 -5.98192e-20)
(93.4835 9.45401 0)
(93.6782 9.92806 -2.06016e-19)
(93.8594 10.3174 -7.06134e-21)
(94.0172 10.6305 6.09214e-19)
(94.1475 10.8785 -4.002e-19)
(94.2512 11.0742 -4.95593e-19)
(94.3334 11.236 -4.52436e-20)
(94.413 11.3094 6.52118e-19)
(94.4598 11.6371 0)
(94.5825 11.5191 8.07021e-19)
(94.0861 -0.00441579 8.59406e-19)
(94.0871 -0.00162335 0)
(94.0884 -0.00147733 -2.49551e-19)
(94.0896 -0.00120484 4.64512e-19)
(94.0908 -0.00109355 -1.98317e-19)
(94.0922 -0.00106869 1.28989e-19)
(94.0938 -0.00109723 2.00959e-23)
(94.0957 -0.00115825 -1.16284e-19)
(94.098 -0.00124709 3.04485e-24)
(94.1007 -0.00131462 1.14349e-19)
(94.1039 -0.0013352 -1.63128e-19)
(94.1076 -0.00123842 0)
(94.1119 -0.000853653 -1.66399e-19)
(94.1168 -4.5388e-05 -1.17243e-19)
(94.1222 0.00143918 1.62092e-19)
(94.1277 0.00406869 -2.22158e-19)
(94.1333 0.00823629 3.9129e-22)
(94.1381 0.0147984 -1.59849e-24)
(94.1418 0.0248768 1.0124e-23)
(94.1431 0.0402897 8.10087e-20)
(94.1408 0.0637175 1.00413e-19)
(94.1325 0.100984 -6.02894e-20)
(94.1152 0.160629 3.48289e-20)
(94.0829 0.257202 -3.60583e-20)
(94.0245 0.426715 -1.94503e-20)
(93.9371 0.7091 -6.52132e-22)
(93.8251 1.10867 -3.13665e-20)
(93.6876 1.62284 -2.91517e-20)
(93.5351 2.24472 -3.14013e-21)
(93.3798 2.95146 -7.63796e-21)
(93.2401 3.7239 9.57127e-21)
(93.1354 4.54235 0)
(93.0814 5.3868 -1.24042e-19)
(93.089 6.23462 1.03082e-19)
(93.1608 7.06049 0)
(93.2915 7.83943 6.76901e-20)
(93.4684 8.54931 -9.23873e-20)
(93.6736 9.17464 1.16461e-19)
(93.8874 9.7082 0)
(94.0925 10.1506 -2.011e-19)
(94.2753 10.5083 3.10685e-19)
(94.4282 10.7917 8.87194e-22)
(94.5486 11.0128 -4.97623e-20)
(94.64 11.1845 0)
(94.7085 11.3258 -5.77067e-19)
(94.7762 11.3766 6.58713e-19)
(94.8098 11.7059 -7.43511e-19)
(94.9284 11.5525 7.81598e-19)
(94.0861 -0.00454283 -4.3191e-19)
(94.0871 -0.00167972 0)
(94.0884 -0.00153598 5.00759e-19)
(94.0896 -0.00126062 -4.67827e-19)
(94.0908 -0.00115139 0)
(94.0922 -0.00113157 3.15575e-22)
(94.0938 -0.00116788 -1.71978e-19)
(94.0957 -0.00123924 2.3262e-19)
(94.098 -0.00134071 -1.55479e-23)
(94.1007 -0.00142304 -1.1395e-19)
(94.1039 -0.00145923 -3.69929e-23)