/*--------------------------------*- C++ -*----------------------------------*\
  =========                 |
  \\      /  F ield         | OpenFOAM: The Open Source CFD Toolbox
   \\    /   O peration     | Website:  https://openfoam.org
    \\  /    A nd           | Version:  10
     \\/     M anipulation  |
\*---------------------------------------------------------------------------*/
FoamFile
{
    format      ascii;
    class       volScalarField;
    location    "5";
    object      k;
}
// * * * * * * * * * * * * * * * * * * * * * * * * * * * * * * * * * * * * * //

dimensions      [0 2 -2 0 0 0 0];

internalField   nonuniform List<scalar> 
38016
(
0.0975919
0.0980214
0.0983259
0.0985869
0.0988419
0.0990279
0.0991951
0.099353
0.099446
0.0995028
0.0996194
0.0996344
0.0996927
0.0997601
0.099778
0.0997945
0.0998366
0.0998558
0.099917
0.0999006
0.0999322
0.0999763
0.100061
0.100243
0.100358
0.100421
0.100379
0.100334
0.10033
0.100338
0.100313
0.100326
0.100284
0.100268
0.100281
0.10025
0.100247
0.100272
0.100289
0.1003
0.100259
0.100258
0.100272
0.100254
0.100311
0.100236
0.100253
0.100245
0.0978408
0.0982769
0.0982814
0.0986135
0.0988627
0.09904
0.099279
0.0993448
0.0994678
0.0995409
0.0996112
0.0996394
0.0997199
0.0997919
0.0997996
0.0998143
0.0998384
0.0998713
0.0998919
0.0999008
0.0999323
0.0999813
0.10006
0.100208
0.100358
0.100449
0.100379
0.100333
0.100339
0.100345
0.100334
0.100354
0.100301
0.100346
0.10037
0.100331
0.100314
0.100294
0.100313
0.100327
0.100307
0.100262
0.10031
0.100328
0.100336
0.100306
0.10029
0.100329
0.0975501
0.0981337
0.0985061
0.0987498
0.0989648
0.0990413
0.099157
0.0993783
0.0995274
0.09948
0.099617
0.099632
0.0996898
0.0997811
0.0997778
0.0997945
0.0998345
0.0998583
0.0998757
0.0998972
0.0999295
0.0999766
0.100049
0.100205
0.100373
0.100477
0.100425
0.100357
0.100372
0.100391
0.100322
0.100345
0.100368
0.100406
0.100407
0.100422
0.100335
0.100383
0.100404
0.100431
0.100341
0.100399
0.100312
0.100355
0.100363
0.100419
0.100371
0.100329
0.0974855
0.0979777
0.0984517
0.0985472
0.0988512
0.0989868
0.0991926
0.0992852
0.099464
0.0994804
0.0996027
0.0996271
0.0996603
0.0997711
0.0997823
0.0997958
0.0998337
0.099844
0.0998772
0.0998973
0.0999373
0.0999822
0.100056
0.100195
0.100373
0.100492
0.100497
0.100401
0.10041
0.100405
0.100398
0.100422
0.100386
0.100453
0.100419
0.100432
0.100375
0.100459
0.100401
0.100432
0.100343
0.100467
0.100494
0.100406
0.100346
0.100496
0.100433
0.100471
0.0977468
0.0979941
0.0984232
0.0985483
0.0988778
0.0989948
0.0990713
0.0993759
0.0993873
0.0994816
0.0995973
0.0996291
0.0996629
0.0997935
0.0997996
0.0997894
0.0998348
0.0998434
0.0998744
0.0999076
0.0999305
0.0999852
0.100069
0.100222
0.100324
0.100509
0.100515
0.100446
0.100438
0.100397
0.100417
0.100447
0.100425
0.100471
0.100441
0.100502
0.100418
0.100474
0.100464
0.100519
0.100492
0.100477
0.100599
0.100474
0.100418
0.100582
0.100509
0.100549
0.0974711
0.0979256
0.0984621
0.0985503
0.098761
0.0989556
0.0991688
0.0993471
0.0993371
0.0995361
0.0996237
0.0996147
0.099654
0.0997606
0.0997701
0.0997901
0.0998301
0.099849
0.099876
0.0998978
0.0999295
0.0999904
0.100083
0.100248
0.100341
0.10045
0.100539
0.100436
0.100489
0.10045
0.100453
0.100463
0.100457
0.100504
0.10044
0.100514
0.100459
0.100439
0.100473
0.100589
0.100586
0.100437
0.100621
0.100488
0.100447
0.100583
0.10061
0.10055
0.097459
0.0979495
0.0984766
0.0985727
0.0987606
0.0989496
0.0991169
0.0993421
0.0993367
0.0994801
0.0995538
0.0996124
0.0996873
0.099741
0.0997713
0.0997863
0.0998267
0.0998342
0.0998783
0.0998937
0.0999299
0.099994
0.100092
0.10025
0.100364
0.100496
0.100544
0.100468
0.100526
0.100451
0.100499
0.100492
0.100482
0.100524
0.10042
0.100543
0.100523
0.100537
0.100469
0.100617
0.10057
0.100524
0.100636
0.100626
0.100518
0.100762
0.100616
0.100629
0.097768
0.0979598
0.0982419
0.098529
0.0987613
0.0989135
0.0991275
0.0992579
0.0993166
0.0994755
0.0995616
0.0996003
0.0996601
0.0997043
0.0997858
0.0997769
0.0998263
0.0998307
0.0998915
0.0998927
0.0999305
0.0999967
0.100103
0.100281
0.100339
0.100449
0.100563
0.100508
0.100538
0.100511
0.100526
0.100499
0.100575
0.100554
0.100504
0.100541
0.100525
0.100583
0.1004
0.100604
0.100658
0.100627
0.100631
0.100733
0.100608
0.10083
0.10074
0.100683
0.0976459
0.097848
0.098248
0.0985305
0.0988829
0.0990163
0.0990669
0.099238
0.0993837
0.0995248
0.0995916
0.0996048
0.099699
0.0996967
0.0997496
0.0997757
0.0998303
0.0998229
0.0998737
0.0998889
0.0999391
0.099999
0.100107
0.100287
0.100362
0.100527
0.100543
0.100575
0.100575
0.100518
0.100581
0.100494
0.100587
0.100572
0.100574
0.100555
0.100594
0.100672
0.100469
0.100739
0.10066
0.100771
0.1007
0.100759
0.100766
0.10087
0.100884
0.100778
0.0975634
0.0978794
0.0982801
0.098501
0.0987792
0.098899
0.0991792
0.0992331
0.0993309
0.0994807
0.0995458
0.0996035
0.0996813
0.0996824
0.0997471
0.0997755
0.0998305
0.0998219
0.0998666
0.09989
0.0999342
0.100002
0.100107
0.100322
0.100407
0.10061
0.10057
0.100549
0.100592
0.100607
0.100595
0.100538
0.100609
0.100596
0.100574
0.100549
0.100578
0.100674
0.100492
0.100707
0.100605
0.100808
0.100737
0.100844
0.100934
0.100931
0.100923
0.100782
0.0972886
0.0978195
0.098335
0.0985231
0.0988235
0.0988938
0.0991451
0.0992225
0.0994107
0.0994991
0.0995254
0.0995965
0.0996676
0.0996828
0.0997438
0.0997544
0.0998069
0.0998205
0.0998597
0.0998873
0.0999351
0.100008
0.100127
0.100331
0.100471
0.100737
0.10057
0.100654
0.100617
0.100661
0.100605
0.100508
0.10061
0.100621
0.100589
0.100558
0.100586
0.100673
0.100548
0.10078
0.100733
0.100837
0.10081
0.100862
0.101006
0.100965
0.100984
0.100821
0.0972443
0.0978432
0.0982987
0.0984793
0.0989497
0.0990295
0.0991545
0.0992284
0.0993811
0.0995521
0.0995203
0.0996154
0.0996279
0.0996806
0.0997494
0.0997518
0.0998045
0.0998308
0.0998407
0.0998992
0.0999374
0.100013
0.100154
0.100374
0.100573
0.100844
0.100556
0.100714
0.100596
0.100647
0.100642
0.100528
0.100645
0.100635
0.100563
0.100516
0.100522
0.100559
0.10061
0.100671
0.100728
0.100863
0.100876
0.10094
0.101036
0.100922
0.100936
0.10083
0.0975284
0.0978192
0.0982387
0.0984884
0.0988056
0.0989716
0.0991367
0.0992159
0.0993685
0.099492
0.0994998
0.0995841
0.0996184
0.0996653
0.0997436
0.099742
0.0998012
0.0998022
0.0998388
0.0998897
0.0999378
0.100019
0.100181
0.100369
0.100727
0.100834
0.100581
0.100761
0.100684
0.100704
0.100678
0.100522
0.100645
0.100663
0.100573
0.100531
0.100564
0.100626
0.100711
0.100743
0.100721
0.100939
0.100926
0.101031
0.100962
0.101113
0.101078
0.100865
0.0972769
0.0978961
0.0981394
0.0984582
0.0986342
0.0989157
0.0990925
0.0992103
0.0993124
0.0994203
0.0995449
0.0995987
0.0996163
0.0996849
0.0997159
0.0997411
0.0998199
0.0998007
0.0998357
0.0998904
0.0999463
0.100028
0.100182
0.100431
0.100864
0.100862
0.100591
0.100797
0.100724
0.100752
0.100734
0.100542
0.100644
0.100659
0.100543
0.100533
0.100547
0.100615
0.100689
0.100749
0.100816
0.100938
0.101064
0.101192
0.101164
0.101106
0.101088
0.100747
0.0972887
0.0981177
0.0979484
0.0984877
0.0985316
0.0989129
0.0989864
0.0992205
0.0993137
0.0993723
0.0994945
0.099556
0.0996019
0.0996506
0.0997174
0.0997378
0.0997931
0.0997945
0.099831
0.0998942
0.0999429
0.100038
0.1002
0.100482
0.10088
0.100771
0.100574
0.100854
0.100765
0.100729
0.10072
0.100543
0.100658
0.10067
0.100522
0.100497
0.100568
0.100461
0.100678
0.100583
0.100829
0.100832
0.100924
0.10122
0.101362
0.101255
0.101136
0.100901
0.0973784
0.0978532
0.097966
0.0986464
0.0985336
0.0989554
0.0989673
0.0991733
0.0993347
0.0993742
0.0994983
0.099556
0.0995951
0.0996491
0.0997108
0.0997229
0.0997915
0.099787
0.0998305
0.099906
0.0999385
0.100047
0.100213
0.100505
0.100932
0.100846
0.100774
0.100826
0.100872
0.100762
0.100782
0.100552
0.100632
0.100654
0.100485
0.100478
0.100498
0.100501
0.100504
0.100633
0.100707
0.101028
0.101048
0.101227
0.101319
0.101168
0.101046
0.100956
0.0976698
0.0975607
0.0979316
0.0984111
0.0984965
0.0990664
0.0990723
0.0991842
0.0994003
0.099354
0.0995087
0.0995365
0.0995798
0.0996417
0.0997395
0.099723
0.0997835
0.099784
0.0998298
0.0998949
0.0999381
0.100048
0.100218
0.100544
0.100867
0.100789
0.100977
0.10094
0.100884
0.100736
0.100792
0.100517
0.100615
0.10064
0.100458
0.100445
0.100506
0.100537
0.100558
0.100685
0.100877
0.101023
0.100977
0.10137
0.101522
0.101329
0.101231
0.100956
0.0974005
0.0974964
0.0978689
0.0983257
0.0985175
0.0989567
0.0989623
0.0991216
0.0993138
0.0993572
0.0994919
0.0995318
0.0996137
0.0996213
0.0997242
0.0997128
0.0997801
0.0997754
0.0998401
0.0998825
0.0999457
0.100054
0.100233
0.10051
0.100979
0.100969
0.101138
0.100976
0.100961
0.100782
0.100837
0.100523
0.100599
0.100636
0.10045
0.100453
0.100503
0.100484
0.100606
0.100647
0.100855
0.100976
0.10115
0.101368
0.101535
0.101552
0.101127
0.100944
0.0971076
0.0975217
0.0978808
0.0982664
0.0984866
0.0988208
0.0989588
0.0991778
0.0992141
0.0993433
0.0994594
0.0995148
0.0995542
0.0996182
0.0997152
0.0997112
0.0997756
0.0997698
0.0998157
0.0998828
0.0999393
0.100055
0.100233
0.100551
0.100919
0.101169
0.10118
0.101098
0.100966
0.100812
0.100834
0.100533
0.100601
0.100637
0.100415
0.100464
0.100558
0.10061
0.100769
0.100817
0.100874
0.100883
0.101149
0.101369
0.10143
0.101576
0.101175
0.100806
0.0974293
0.0975792
0.0978337
0.0980589
0.0985002
0.0987458
0.0990891
0.0990899
0.0991782
0.0993253
0.0994224
0.099517
0.0995383
0.0996007
0.0996881
0.0997052
0.099784
0.0997613
0.0998157
0.0998718
0.0999471
0.100058
0.100226
0.100599
0.101044
0.101342
0.101212
0.101098
0.100994
0.100793
0.100818
0.100507
0.100599
0.10064
0.100437
0.100475
0.100476
0.100415
0.100789
0.100843
0.100892
0.101026
0.101053
0.101339
0.10166
0.101464
0.101325
0.101061
0.0972238
0.0973871
0.0977644
0.0980517
0.0986018
0.0989007
0.0990173
0.0990968
0.0992547
0.0993947
0.0993581
0.0995076
0.099531
0.0995936
0.0996731
0.0996869
0.0997458
0.0997586
0.0998261
0.0998641
0.0999413
0.10006
0.100254
0.100595
0.101123
0.101347
0.101213
0.101132
0.101011
0.100872
0.10083
0.100471
0.100636
0.100652
0.100446
0.100504
0.100547
0.100514
0.100801
0.100686
0.100934
0.101242
0.101102
0.10146
0.101955
0.101654
0.101142
0.101339
0.0971466
0.0975795
0.0977673
0.0982392
0.0983682
0.0988288
0.0991248
0.0991146
0.0991609
0.0993175
0.0993588
0.0994979
0.0995103
0.0995846
0.099627
0.0997119
0.0997316
0.0997542
0.0998013
0.099849
0.099936
0.100054
0.100271
0.100639
0.101068
0.101355
0.101317
0.101081
0.101066
0.100923
0.100855
0.100492
0.100747
0.100705
0.100484
0.100602
0.100594
0.100577
0.100812
0.100917
0.100958
0.101281
0.1013
0.101551
0.101885
0.101633
0.101275
0.101563
0.0970676
0.0973148
0.0979891
0.0980363
0.0985222
0.0987617
0.0989834
0.0990886
0.0991526
0.0992946
0.0993412
0.0994768
0.0995012
0.0995724
0.09962
0.0996677
0.0997318
0.0997352
0.0997713
0.0998495
0.0999388
0.100042
0.100265
0.100634
0.101175
0.101259
0.101311
0.101098
0.101113
0.100949
0.100871
0.100517
0.100822
0.100766
0.100576
0.100668
0.100679
0.100685
0.100638
0.100817
0.100767
0.101311
0.101597
0.101737
0.102181
0.101783
0.101231
0.101632
0.0972391
0.0973298
0.0977235
0.0979764
0.0983102
0.0989012
0.0988309
0.0990325
0.0992533
0.099363
0.0993335
0.0994753
0.0994905
0.0995715
0.0995964
0.0996576
0.0996819
0.0997313
0.099767
0.0998564
0.099933
0.100041
0.100279
0.100601
0.101178
0.101315
0.101396
0.101105
0.101114
0.101043
0.100922
0.100549
0.100947
0.100887
0.100718
0.100803
0.100785
0.100874
0.100884
0.101012
0.101075
0.101345
0.101621
0.101686
0.102195
0.10185
0.101301
0.101735
0.0966511
0.0973802
0.0979307
0.0981721
0.0982488
0.0987006
0.0988247
0.0989796
0.0992033
0.0992633
0.0993381
0.0994864
0.09948
0.0995652
0.0995849
0.0996534
0.099679
0.0997242
0.0997683
0.099842
0.0999248
0.100038
0.100279
0.100618
0.101184
0.10138
0.101412
0.101155
0.101106
0.101154
0.101005
0.100617
0.100993
0.100981
0.100778
0.100886
0.100854
0.100861
0.100911
0.101039
0.101118
0.101373
0.101405
0.101909
0.102173
0.102101
0.101351
0.10185
0.0966081
0.0971628
0.0978165
0.0979054
0.0984145
0.0986061
0.0988202
0.0988852
0.0991456
0.0993121
0.0993567
0.0994883
0.0994708
0.0995767
0.0995624
0.0996465
0.0996636
0.0997021
0.0997707
0.09982
0.0999137
0.100039
0.100289
0.100603
0.101125
0.101409
0.101449
0.101199
0.101105
0.101156
0.101094
0.100764
0.101003
0.10101
0.100808
0.100883
0.100761
0.10059
0.100932
0.100822
0.10092
0.101432
0.101626
0.101992
0.10235
0.102213
0.101452
0.101941
0.0964851
0.0973157
0.0977965
0.0978118
0.0982062
0.0987074
0.0988732
0.0990108
0.0992045
0.0992279
0.0993207
0.0994352
0.0995193
0.0995303
0.0995546
0.0996392
0.0996576
0.0996954
0.0997527
0.0998199
0.0999085
0.100032
0.100281
0.100599
0.101169
0.101501
0.101535
0.101171
0.101138
0.101154
0.101099
0.10094
0.101015
0.10107
0.100832
0.100982
0.100845
0.100747
0.100706
0.101168
0.101207
0.101479
0.101725
0.102266
0.102862
0.1024
0.101517
0.102071
0.0967677
0.0970101
0.097693
0.0977405
0.0982023
0.0985835
0.0987221
0.0989514
0.0990658
0.0992071
0.0992204
0.0994605
0.0994592
0.099498
0.0995331
0.0996356
0.0996517
0.0996837
0.0997271
0.0998379
0.0998931
0.100024
0.100276
0.100563
0.101169
0.10146
0.101499
0.101204
0.101162
0.101178
0.101113
0.101034
0.101036
0.101168
0.100971
0.101089
0.100883
0.100897
0.101052
0.100958
0.101316
0.101472
0.101927
0.102165
0.103038
0.102333
0.101769
0.102211
0.096418
0.0973039
0.0976836
0.0977042
0.098365
0.0986341
0.0987274
0.0988974
0.0990657
0.0990982
0.0992182
0.0994035
0.0994427
0.0994371
0.0995207
0.0996574
0.0996114
0.0996799
0.099726
0.0998264
0.0998959
0.100013
0.100259
0.100581
0.101125
0.101559
0.101526
0.101176
0.101204
0.101226
0.10114
0.101039
0.101049
0.101315
0.101049
0.101064
0.101006
0.100649
0.101075
0.101351
0.101158
0.101656
0.101984
0.102428
0.103142
0.102681
0.101687
0.102526
0.096435
0.0969581
0.0974692
0.0976092
0.0982946
0.0986282
0.0988059
0.0988808
0.0991067
0.0990912
0.0991981
0.0993808
0.0995026
0.0994324
0.0995063
0.0996004
0.0995998
0.0997009
0.0997217
0.0998184
0.0998738
0.100009
0.100241
0.100608
0.101112
0.101547
0.101475
0.101193
0.101279
0.101242
0.101119
0.101046
0.101075
0.101375
0.101171
0.101213
0.10107
0.100864
0.100993
0.101389
0.101486
0.101454
0.102241
0.102399
0.103381
0.102501
0.101926
0.10298
0.0963518
0.0971221
0.0975317
0.0976091
0.0982911
0.0988036
0.0986084
0.0988994
0.0990848
0.0991675
0.0991599
0.0993033
0.0994514
0.0994128
0.0994804
0.0996071
0.0995781
0.0996587
0.0997265
0.0998068
0.0998569
0.100004
0.100242
0.100596
0.10103
0.101578
0.101482
0.101229
0.101284
0.101226
0.101133
0.101058
0.101095
0.101454
0.101334
0.101235
0.101166
0.100982
0.101166
0.101415
0.101356
0.102001
0.102715
0.102709
0.103522
0.102963
0.10234
0.103134
0.0967334
0.0967535
0.0973277
0.097571
0.0982469
0.0986333
0.0986856
0.0989394
0.0989886
0.0990337
0.0991509
0.0992657
0.0994961
0.0994131
0.0994722
0.099562
0.0995639
0.0996187
0.0997528
0.0997866
0.099853
0.100005
0.100236
0.100592
0.101015
0.101612
0.101503
0.101273
0.101314
0.101207
0.10114
0.101098
0.101122
0.101498
0.101513
0.101366
0.101307
0.101007
0.10115
0.101229
0.101502
0.101916
0.102333
0.103107
0.103743
0.103207
0.102008
0.103407
0.0965444
0.0967561
0.0974153
0.0974438
0.0981753
0.0985008
0.0985411
0.0990301
0.0990487
0.0990161
0.0991985
0.0992584
0.0994015
0.0993972
0.0994591
0.0996049
0.0995515
0.0995984
0.0997055
0.0997534
0.0998499
0.100001
0.100191
0.100568
0.100981
0.101529
0.101611
0.101279
0.101343
0.101185
0.101148
0.101234
0.101254
0.101538
0.101537
0.101522
0.101442
0.10099
0.100994
0.101722
0.10157
0.102565
0.102916
0.103222
0.103541
0.103356
0.102405
0.103593
0.0964458
0.0964165
0.0976044
0.0974172
0.0980043
0.0983778
0.0985661
0.0988919
0.0989396
0.0990141
0.0990941
0.0992485
0.0993157
0.0993975
0.0994506
0.0995651
0.0995368
0.0995818
0.0996465
0.099705
0.0998451
0.100017
0.100188
0.100515
0.10094
0.101481
0.101703
0.101329
0.101344
0.101195
0.101194
0.101377
0.101277
0.101588
0.101758
0.101641
0.101658
0.101264
0.101067
0.101768
0.10169
0.102707
0.10343
0.103943
0.104252
0.103616
0.102377
0.103366
0.0961193
0.0964636
0.0973242
0.0976524
0.0979841
0.0983918
0.0986799
0.0986873
0.0989143
0.0989902
0.0990783
0.0992499
0.0993187
0.0994076
0.099377
0.0995161
0.0995237
0.0995294
0.0996352
0.0996831
0.0998472
0.0999982
0.100183
0.100448
0.100866
0.101486
0.101706
0.101409
0.101335
0.101237
0.101253
0.101388
0.101359
0.101592
0.101791
0.101661
0.101851
0.101551
0.101441
0.101472
0.101787
0.1024
0.102978
0.104029
0.104341
0.103769
0.102964
0.104313
0.0960795
0.0964411
0.0968916
0.0973049
0.0977217
0.0981942
0.0984866
0.0986691
0.0987729
0.0990395
0.0990396
0.099159
0.0992252
0.0994429
0.0993709
0.0995388
0.0995148
0.0995198
0.0996119
0.0996737
0.0998787
0.0999783
0.100179
0.100455
0.100888
0.101586
0.101774
0.101446
0.101352
0.101335
0.101322
0.101422
0.101368
0.101624
0.10185
0.101885
0.101907
0.101572
0.101902
0.101925
0.101949
0.103019
0.103676
0.104175
0.104438
0.103991
0.102333
0.104645
0.0956364
0.0964172
0.0968752
0.0972108
0.097712
0.098347
0.098508
0.0987105
0.0987548
0.098928
0.0990421
0.0992121
0.0992122
0.0994256
0.099347
0.0994901
0.099547
0.0995454
0.0996024
0.0996559
0.0998524
0.0999516
0.100191
0.100433
0.100925
0.101636
0.101762
0.101419
0.101333
0.101463
0.101358
0.101401
0.101383
0.101542
0.101848
0.101989
0.101962
0.10158
0.101995
0.101761
0.102109
0.102786
0.103054
0.104294
0.104497
0.104132
0.102536
0.104772
0.0956462
0.096535
0.0967798
0.0972119
0.0976031
0.0981415
0.0986337
0.0986007
0.0987501
0.0989537
0.0990107
0.0991196
0.0992044
0.099378
0.0993357
0.0994851
0.0994869
0.0994703
0.0996229
0.099648
0.0998313
0.0999396
0.100139
0.100422
0.100946
0.101742
0.101778
0.101386
0.101326
0.10149
0.1014
0.101434
0.101399
0.101539
0.101886
0.101875
0.101953
0.101432
0.10214
0.101989
0.102306
0.103209
0.103642
0.104378
0.104573
0.104372
0.102803
0.103891
0.0955422
0.096754
0.0971091
0.0971498
0.0975809
0.0981293
0.0983773
0.0986377
0.098737
0.0988395
0.0990051
0.0991158
0.0992583
0.0993156
0.0993937
0.0994362
0.0994587
0.0994851
0.0995533
0.0996343
0.0997904
0.0999118
0.100149
0.100448
0.101051
0.101751
0.101815
0.101385
0.101327
0.101528
0.101405
0.101459
0.101426
0.101562
0.101794
0.102063
0.102193
0.101667
0.102193
0.102202
0.102507
0.103469
0.104406
0.104011
0.104589
0.104545
0.103602
0.104987
0.0953691
0.0964801
0.0967006
0.097022
0.0975133
0.0978759
0.098141
0.0985156
0.0988184
0.0988424
0.0990942
0.0992022
0.099126
0.0992049
0.09929
0.0994502
0.0994716
0.0994149
0.0995526
0.0996252
0.0997385
0.0998696
0.100113
0.100448
0.101145
0.101798
0.101865
0.101353
0.101319
0.101532
0.101447
0.101576
0.101459
0.101571
0.101899
0.10211
0.102231
0.101901
0.101933
0.102661
0.102828
0.10398
0.103768
0.104962
0.104873
0.104495
0.103746
0.106081
0.0953359
0.0959744
0.0969459
0.0972981
0.0977743
0.0978302
0.098143
0.0985603
0.0987047
0.0988497
0.0989545
0.0990869
0.0991406
0.0991868
0.0992599
0.0993961
0.0993938
0.0993873
0.0994947
0.0996205
0.0997169
0.0998648
0.100114
0.100441
0.101175
0.101759
0.101898
0.101332
0.101337
0.101578
0.10155
0.101735
0.10156
0.101578
0.101825
0.102118
0.102181
0.101768
0.102418
0.102659
0.103394
0.104021
0.104412
0.105079
0.104997
0.104876
0.103897
0.106875
0.0951005
0.0958535
0.0963916
0.0969346
0.097669
0.0978143
0.0978783
0.0985469
0.0987438
0.0988186
0.0989474
0.0991378
0.0991381
0.0991772
0.0992551
0.0993487
0.0993911
0.0993718
0.0994955
0.0996138
0.0997095
0.0998606
0.100143
0.100476
0.10121
0.101789
0.101965
0.101357
0.101345
0.101635
0.101695
0.101827
0.101672
0.101582
0.101992
0.102014
0.102388
0.102147
0.102555
0.102702
0.103713
0.104927
0.105168
0.104309
0.104714
0.104908
0.103154
0.109047
0.0950156
0.0958761
0.0965886
0.0968966
0.0976945
0.0977847
0.0978478
0.098553
0.0988751
0.0987189
0.0988891
0.0990526
0.098998
0.0991711
0.0992562
0.0992633
0.0993203
0.0993425
0.0994802
0.0996535
0.0997347
0.0998921
0.100095
0.100483
0.101213
0.101755
0.101944
0.101373
0.101362
0.101664
0.101794
0.101971
0.101793
0.101842
0.1022
0.102258
0.102366
0.102121
0.102323
0.102804
0.103773
0.105018
0.105597
0.105199
0.105846
0.105122
0.104408
0.109102
0.0948091
0.0958905
0.09615
0.0972464
0.0976461
0.0978424
0.0977564
0.0987205
0.0986855
0.0986522
0.0988553
0.099013
0.0989898
0.0992296
0.099189
0.0992552
0.0993219
0.0993359
0.0994768
0.0996089
0.0996659
0.0998407
0.1001
0.100524
0.101162
0.101682
0.101916
0.101439
0.101357
0.101735
0.10195
0.1021
0.102159
0.101966
0.102274
0.10256
0.102353
0.101849
0.102844
0.102759
0.103849
0.105208
0.105651
0.104082
0.105821
0.104584
0.105788
0.109728
0.0952649
0.0958779
0.0961495
0.0969841
0.0976369
0.0975523
0.0977147
0.0985369
0.0984686
0.0984918
0.0989078
0.0989279
0.0989741
0.0991871
0.099181
0.0992422
0.0993143
0.0993095
0.0994699
0.0996041
0.099664
0.0998488
0.100113
0.100525
0.101125
0.101706
0.101873
0.101459
0.101398
0.101817
0.102168
0.102269
0.10219
0.101937
0.102456
0.102679
0.102297
0.102046
0.102899
0.102132
0.103411
0.105237
0.105794
0.104677
0.104983
0.104979
0.106036
0.112587
0.0947321
0.0959056
0.0960615
0.0965807
0.0975366
0.0977821
0.0976739
0.0985726
0.0984594
0.0984882
0.0986643
0.0990096
0.0989006
0.0991572
0.0991527
0.0991682
0.0992759
0.0992889
0.0994832
0.0995454
0.0996495
0.0998543
0.100129
0.100556
0.101149
0.101745
0.101883
0.101522
0.101428
0.101923
0.102407
0.102233
0.102118
0.10232
0.102529
0.102926
0.102141
0.102251
0.102926
0.102562
0.103985
0.104368
0.105796
0.105447
0.105826
0.10557
0.104843
0.112952
0.09467
0.0954825
0.096088
0.096455
0.0975627
0.097489
0.0976116
0.0987676
0.0983963
0.0984378
0.0986373
0.0989578
0.0989935
0.0990829
0.0992289
0.0991522
0.099278
0.0992792
0.0995266
0.0996077
0.0996492
0.0999148
0.100154
0.100543
0.101173
0.101716
0.101859
0.101493
0.101436
0.101967
0.102444
0.102252
0.102072
0.102491
0.102643
0.103039
0.102416
0.102629
0.10299
0.103033
0.103144
0.105229
0.105827
0.10535
0.104755
0.105405
0.106461
0.110869
0.0947159
0.0954146
0.0961681
0.0964366
0.0973443
0.0974724
0.0976013
0.0985781
0.0983977
0.0984211
0.0985699
0.0989257
0.0988495
0.0990757
0.0991176
0.0991118
0.0992843
0.0992544
0.0994505
0.0995517
0.0996493
0.0999002
0.100136
0.10054
0.101261
0.101709
0.101838
0.101515
0.101507
0.10207
0.102491
0.10219
0.101997
0.102918
0.102641
0.103198
0.102441
0.102729
0.10294
0.103015
0.103351
0.104009
0.105576
0.104798
0.105342
0.104573
0.105509
0.114648
0.0949211
0.0948138
0.0960926
0.0967454
0.0973244
0.0977357
0.0975906
0.0988188
0.0984077
0.0983814
0.0985381
0.0988308
0.0988175
0.0989911
0.0991041
0.0991038
0.0992407
0.0992521
0.0994499
0.0995594
0.0997074
0.0998788
0.100115
0.100565
0.10141
0.101735
0.10186
0.101543
0.101589
0.102125
0.102601
0.102219
0.101916
0.102941
0.102677
0.103212
0.10259
0.102902
0.102866
0.103074
0.103216
0.104278
0.104731
0.105381
0.105349
0.105533
0.107377
0.115404
0.0946109
0.0947748
0.0955319
0.096231
0.0970508
0.0976119
0.0977775
0.0987103
0.0982712
0.0983841
0.0985033
0.098829
0.0988206
0.0990132
0.0991923
0.0990962
0.0992424
0.0993179
0.0995081
0.0994995
0.0996518
0.0999351
0.100132
0.100583
0.101496
0.101738
0.10186
0.101557
0.101685
0.102178
0.102613
0.102195
0.101924
0.103147
0.102687
0.103256
0.102614
0.102949
0.102231
0.102387
0.103226
0.103992
0.105627
0.105251
0.105148
0.10561
0.107339
0.115046
0.0938388
0.0945097
0.0955372
0.0962021
0.0972222
0.0975497
0.0975041
0.0985418
0.0984441
0.0983545
0.0984585
0.0987102
0.0987881
0.0990101
0.099088
0.0990906
0.0992159
0.0992342
0.0994465
0.0995654
0.0996481
0.0999035
0.100131
0.100633
0.101658
0.101767
0.101867
0.101636
0.101706
0.102155
0.102647
0.102459
0.101866
0.103168
0.102837
0.103261
0.10271
0.103026
0.102494
0.102906
0.103452
0.103798
0.105499
0.103858
0.104166
0.104306
0.10597
0.114752
0.0937142
0.0944344
0.0954546
0.0960038
0.0969302
0.0973164
0.0974972
0.0986838
0.098264
0.098264
0.098444
0.0987293
0.0987972
0.0990458
0.099083
0.0990844
0.0992115
0.0992347
0.0993854
0.0995087
0.0996542
0.0998763
0.100135
0.100669
0.101722
0.101754
0.101838
0.10173
0.101788
0.102198
0.102626
0.102751
0.102121
0.103118
0.102948
0.103096
0.102667
0.103113
0.102797
0.102314
0.103391
0.103928
0.104399
0.104195
0.104765
0.104568
0.107628
0.113763
0.0935431
0.0942666
0.0959966
0.0959302
0.0968938
0.0972662
0.0975022
0.0982856
0.0982615
0.098434
0.098432
0.0987035
0.098787
0.0991357
0.099098
0.0990859
0.0991985
0.0992371
0.099383
0.0995551
0.0996633
0.0998622
0.100135
0.100698
0.101791
0.101831
0.10186
0.101879
0.101852
0.102196
0.102601
0.102708
0.102369
0.103313
0.103024
0.103373
0.102657
0.103329
0.102792
0.10284
0.103219
0.103398
0.105108
0.104171
0.104091
0.104792
0.10736
0.113174
0.0940959
0.094789
0.0957665
0.0957372
0.0966093
0.0969002
0.097416
0.0979014
0.0983597
0.098251
0.0984096
0.0987066
0.0987552
0.0990599
0.0992027
0.0990846
0.0992177
0.0992546
0.0993604
0.0994716
0.0997346
0.0999097
0.100201
0.100738
0.101807
0.101865
0.101852
0.101943
0.101876
0.102209
0.102541
0.102849
0.102439
0.103265
0.103331
0.103102
0.102619
0.10347
0.102777
0.102107
0.102479
0.103794
0.10501
0.10475
0.103831
0.104013
0.105445
0.107751
0.0934965
0.0944835
0.0955776
0.0960975
0.0967789
0.0968751
0.0973883
0.0975627
0.0982106
0.0983542
0.0986011
0.098874
0.098782
0.0989332
0.0990628
0.0990927
0.0991786
0.0992738
0.0993718
0.0994791
0.0997169
0.0998761
0.100194
0.100749
0.101794
0.101939
0.101855
0.101911
0.102008
0.102242
0.102556
0.102833
0.102316
0.103334
0.103248
0.103163
0.102756
0.103675
0.102697
0.10243
0.102875
0.103604
0.103605
0.1047
0.103779
0.105089
0.106994
0.108874
0.093912
0.0942484
0.0950092
0.0954928
0.0966213
0.096704
0.0972958
0.0977858
0.0981113
0.098084
0.0985509
0.0987558
0.0987849
0.0988405
0.0989995
0.099109
0.0991724
0.0992147
0.099378
0.0994892
0.0997065
0.0998865
0.100222
0.100736
0.101801
0.101859
0.101803
0.101918
0.102162
0.102217
0.102584
0.102757
0.102582
0.103269
0.103143
0.103185
0.102765
0.103696
0.102998
0.102051
0.102104
0.102632
0.103603
0.104542
0.103773
0.105133
0.107246
0.109096
0.0930374
0.0936615
0.0948684
0.0953544
0.096503
0.0966368
0.0973117
0.0975023
0.0980771
0.0980822
0.0985777
0.0987154
0.098771
0.0988568
0.0990082
0.0991336
0.0991657
0.0993115
0.0993883
0.0995755
0.0997199
0.0999629
0.100317
0.100748
0.101756
0.101771
0.101794
0.101933
0.102125
0.1023
0.102615
0.102712
0.102667
0.103153
0.103409
0.103423
0.10265
0.10336
0.103054
0.102493
0.102318
0.103157
0.103285
0.104426
0.104238
0.105138
0.106988
0.10833
0.0930224
0.093626
0.094819
0.0957414
0.0962082
0.096477
0.097395
0.0974692
0.0978263
0.0980259
0.0985522
0.0988701
0.0988178
0.0988258
0.0990283
0.0992294
0.0991667
0.0992572
0.0994197
0.0995481
0.099789
0.099961
0.100294
0.100782
0.101676
0.101697
0.101772
0.101892
0.102089
0.102381
0.102528
0.102823
0.102927
0.103173
0.103142
0.103569
0.103187
0.103713
0.103227
0.101963
0.10273
0.10297
0.103029
0.104205
0.104237
0.105332
0.106731
0.106536
0.0928574
0.0933524
0.0951133
0.0950947
0.0960601
0.0967844
0.0972343
0.0974927
0.0978157
0.0982277
0.0984669
0.0986578
0.0989137
0.0989746
0.0990727
0.0991309
0.0991761
0.0992619
0.099425
0.0995257
0.0997947
0.0999896
0.100305
0.100802
0.101601
0.10168
0.101785
0.101851
0.102013
0.102358
0.102516
0.102701
0.102866
0.103065
0.103154
0.103491
0.103415
0.103487
0.103333
0.10237
0.102724
0.102072
0.102685
0.10395
0.104187
0.105249
0.105909
0.106157
0.0934122
0.0933191
0.0942509
0.0949451
0.0956362
0.0963314
0.0973539
0.0974866
0.0980143
0.0980499
0.0984425
0.0985156
0.0988125
0.0989297
0.0991363
0.0991566
0.099223
0.0992339
0.0994716
0.0995893
0.0998071
0.10001
0.100326
0.100867
0.101566
0.101831
0.101762
0.101777
0.101988
0.102345
0.102467
0.102643
0.102822
0.103155
0.103188
0.103401
0.103217
0.103737
0.103049
0.10263
0.102111
0.102092
0.102397
0.102879
0.103795
0.104789
0.106278
0.106154
0.0923842
0.0932422
0.0942996
0.0953665
0.0956658
0.096248
0.0972339
0.0975764
0.0977089
0.0981986
0.0984281
0.0985558
0.0986369
0.0988857
0.0990804
0.0992549
0.099215
0.0993423
0.0994774
0.099515
0.0998137
0.100017
0.100338
0.100913
0.101605
0.101836
0.101747
0.101774
0.101988
0.102286
0.102492
0.102559
0.102723
0.103094
0.103103
0.103224
0.10291
0.103488
0.103741
0.102038
0.10261
0.10194
0.102351
0.103043
0.104197
0.105588
0.104514
0.104403
0.092811
0.0925846
0.0936344
0.094656
0.0956198
0.0962728
0.0971481
0.0977212
0.0977071
0.0979295
0.0985853
0.0983923
0.0986081
0.0988561
0.0989455
0.0991425
0.0991672
0.0993044
0.0993974
0.0995908
0.0998229
0.100049
0.100359
0.100936
0.101626
0.101794
0.1017
0.101731
0.102013
0.102197
0.102477
0.102436
0.102545
0.103074
0.102833
0.10325
0.103157
0.103217
0.103676
0.102579
0.102168
0.101936
0.101845
0.10265
0.102879
0.105866
0.104822
0.105088
0.0915968
0.092441
0.0936693
0.0944975
0.0954557
0.0961719
0.0969021
0.0975457
0.0976591
0.097942
0.0983389
0.0983988
0.0987491
0.0988404
0.098939
0.099044
0.0992084
0.0993857
0.0994298
0.0995347
0.0998234
0.100052
0.100366
0.101008
0.101726
0.101788
0.101667
0.101738
0.102025
0.102025
0.102411
0.102384
0.10246
0.102915
0.102931
0.102861
0.10269
0.103258
0.103616
0.102103
0.102795
0.102039
0.102028
0.102429
0.103129
0.105587
0.105163
0.104546
0.0915042
0.0921203
0.0935838
0.0944514
0.0955116
0.0965601
0.0967765
0.0971874
0.0975403
0.0979747
0.0983479
0.0985747
0.0985866
0.0988106
0.0988839
0.0990626
0.099255
0.0993077
0.0993752
0.0995464
0.0998113
0.100072
0.100386
0.101047
0.101823
0.101719
0.101594
0.101772
0.102043
0.101948
0.102359
0.102287
0.102521
0.102765
0.102902
0.102738
0.102626
0.102848
0.102955
0.102659
0.102822
0.102493
0.101921
0.102471
0.103155
0.105319
0.104995
0.104467
0.0913571
0.0927348
0.0940708
0.0944014
0.0954105
0.0961839
0.0964059
0.0970901
0.0975314
0.0979477
0.0983652
0.0984494
0.0985654
0.0987996
0.0989988
0.0990738
0.0992355
0.0992139
0.0993897
0.0995656
0.0997705
0.100088
0.100442
0.101064
0.101774
0.101656
0.101585
0.101746
0.102009
0.101917
0.102281
0.102451
0.102544
0.102655
0.102551
0.102667
0.102446
0.103217
0.103309
0.103003
0.102931
0.102563
0.102351
0.102768
0.103475
0.103818
0.103554
0.103857
0.091145
0.0917399
0.0938191
0.0938427
0.0954391
0.0962011
0.0964292
0.0970874
0.0975389
0.0976515
0.0982798
0.0982918
0.0985818
0.0988729
0.0988683