/*--------------------------------*- C++ -*----------------------------------*\
  =========                 |
  \\      /  F ield         | OpenFOAM: The Open Source CFD Toolbox
   \\    /   O peration     | Website:  https://openfoam.org
    \\  /    A nd           | Version:  10
     \\/     M anipulation  |
\*---------------------------------------------------------------------------*/
FoamFile
{
    format      ascii;
    class       volScalarField;
    location    "5";
    object      nut;
}
// * * * * * * * * * * * * * * * * * * * * * * * * * * * * * * * * * * * * * //

dimensions      [0 2 -1 0 0 0 0];

internalField   nonuniform List<scalar> 
38016
(
0.0061796
0.00619661
0.00619472
0.00619726
0.0061982
0.00618973
0.00619949
0.00619782
0.00620028
0.00620074
0.00620381
0.00620156
0.00620131
0.00620302
0.00620278
0.00620168
0.00620246
0.00620314
0.00620576
0.00620335
0.00620424
0.00620504
0.00620812
0.00621455
0.00621565
0.00499755
0.00244765
0.00139141
0.00092575
0.000694684
0.000554898
0.000447585
0.000362694
0.000296219
0.000229284
0.000197643
0.000161444
0.000130718
0.000105777
8.61332e-05
7.09173e-05
5.93229e-05
5.02964e-05
4.30103e-05
3.68262e-05
3.19989e-05
2.73466e-05
2.16794e-05
0.00621077
0.00620402
0.00619034
0.00619819
0.00619863
0.00618974
0.00620385
0.0061959
0.0062012
0.00620146
0.00620413
0.00619944
0.00620287
0.00620488
0.00620409
0.00620291
0.00620232
0.00620407
0.00620344
0.00620263
0.00620427
0.00620509
0.00620803
0.00621255
0.0062157
0.00367118
0.00186675
0.00111131
0.000774272
0.000646277
0.000593723
0.000561446
0.0005171
0.000459374
0.00039091
0.000319625
0.000260925
0.00020994
0.000168074
0.000135124
0.000109838
9.06378e-05
7.58583e-05
6.38111e-05
5.33053e-05
4.53841e-05
3.80527e-05
2.81015e-05
0.00617585
0.00620891
0.00620373
0.00620622
0.00620737
0.00618974
0.00619464
0.00619408
0.00620608
0.00620053
0.00620445
0.00620044
0.00620094
0.00620466
0.00620268
0.00620163
0.00620156
0.00620353
0.00620298
0.00620277
0.0062043
0.00620547
0.00620785
0.00621301
0.00621814
0.00512345
0.00272446
0.00165341
0.00115609
0.000932499
0.00081461
0.000730044
0.000650875
0.000578018
0.000494932
0.000420538
0.000360127
0.000302227
0.000248527
0.000201717
0.000162917
0.000131948
0.000106966
8.64166e-05
6.89541e-05
5.63065e-05
4.58983e-05
3.2523e-05
0.00618883
0.00619859
0.00620429
0.00619931
0.00620048
0.00618613
0.00619803
0.00619256
0.00620251
0.00619899
0.00620351
0.00620173
0.00620039
0.00620401
0.00620283
0.00620256
0.0062024
0.00620259
0.00620256
0.00620286
0.00620478
0.00620581
0.00620798
0.0062125
0.00621719
0.00512733
0.00278156
0.0017168
0.00122719
0.00101314
0.000906616
0.000832775
0.000763692
0.000705275
0.000617704
0.000533841
0.000462226
0.000386248
0.000310765
0.000244526
0.000190397
0.00014897
0.000116982
9.17396e-05
7.18719e-05
5.77546e-05
4.69677e-05
3.44759e-05
0.00620857
0.00619913
0.00620011
0.00619892
0.006203
0.00618645
0.00619227
0.00620074
0.00619593
0.00620135
0.00620057
0.0062025
0.00620061
0.00620511
0.00620435
0.00620171
0.00620284
0.00620266
0.00620339
0.00620388
0.00620453
0.00620586
0.00620871
0.00621366
0.00621364
0.00512705
0.00282939
0.00177613
0.00129356
0.00108916
0.000996256
0.000933814
0.000872506
0.000821658
0.00072679
0.000620738
0.000528541
0.000430894
0.000337435
0.000258806
0.000197827
0.00015298
0.000119531
9.35527e-05
7.36988e-05
5.95806e-05
4.90465e-05
3.76306e-05
0.00619116
0.00618159
0.00619404
0.00619867
0.00618708
0.00617758
0.00620108
0.00620185
0.00619806
0.00620107
0.00620499
0.00620014
0.00620098
0.00620263
0.00620257
0.00620264
0.00620261
0.00620333
0.00620367
0.00620301
0.00620397
0.00620615
0.00620957
0.00621489
0.00621353
0.005151
0.00287389
0.00182682
0.00134592
0.00114646
0.00106169
0.00100679
0.000950553
0.000903195
0.000805353
0.000681585
0.000572603
0.000458857
0.000353769
0.000267869
0.000203957
0.000157794
0.000123884
9.75319e-05
7.76677e-05
6.35823e-05
5.32311e-05
4.27317e-05
0.00619079
0.00619644
0.00620817
0.00619942
0.00619249
0.00618487
0.00620281
0.00620158
0.00619466
0.00619904
0.00620067
0.00620208
0.00620339
0.00620301
0.00620307
0.00620259
0.00620251
0.00620182
0.0062029
0.00620335
0.00620464
0.0062067
0.00620988
0.00621487
0.00621383
0.00519467
0.00293109
0.0018753
0.00139318
0.00119511
0.00111795
0.00107045
0.00102094
0.000979419
0.000883702
0.000747533
0.000622759
0.000492783
0.000373957
0.000280705
0.000213602
0.000166231
0.000131183
0.00010412
8.38395e-05
6.9774e-05
5.92256e-05
5.01163e-05
0.00620791
0.00619764
0.00619299
0.00619961
0.00619843
0.00617951
0.00619863
0.00619729
0.00619669
0.00619967
0.00620105
0.00620157
0.00620279
0.00619887
0.00620391
0.00620197
0.00620169
0.00620257
0.00620412
0.00620339
0.00620468
0.00620644
0.00621038
0.00621623
0.00621092
0.00524584
0.00298357
0.00193059
0.00144168
0.00124473
0.00117444
0.00113608
0.00109774
0.00106555
0.000976755
0.000828216
0.000684331
0.000533791
0.000397866
0.000296724
0.00022651
0.000177463
0.000140841
0.000112725
9.18977e-05
7.77946e-05
6.70032e-05
6.01075e-05
0.00620368
0.00618951
0.00619284
0.00619979
0.00620382
0.00619841
0.00619895
0.00619497
0.00620026
0.00620588
0.00620274
0.00620162
0.00620525
0.00619961
0.00620221
0.00620218
0.00620342
0.00620216
0.00620333
0.00620389
0.00620493
0.00620686
0.00621047
0.0062165
0.00621186
0.00530948
0.00304886
0.00198387
0.00149044
0.00129471
0.00123314
0.00120549
0.00118108
0.00116295
0.00108516
0.000923956
0.000756037
0.000579241
0.000424594
0.00031549
0.000241773
0.000191345
0.000152905
0.000123255
0.000101944
8.78648e-05
7.6679e-05
7.33428e-05
0.00618199
0.00619009
0.00618214
0.00620028
0.0061974
0.0061994
0.00619949
0.00619071
0.00619664
0.00620343
0.0061993
0.0062019
0.00620486
0.00620005
0.00620215
0.00620268
0.00620369
0.00620249
0.00620384
0.00620394
0.00620511
0.00620724
0.00621024
0.00621889
0.00621376
0.00538173
0.0031121
0.00203898
0.00154134
0.00134755
0.00129383
0.00128012
0.00127315
0.00127392
0.00121109
0.00103674
0.000837121
0.000627647
0.000453429
0.000336335
0.000259816
0.000207953
0.000167488
0.000136059
0.000114149
0.000100381
8.84564e-05
9.04421e-05
0.00617655
0.00618309
0.00619347
0.00620074
0.0062083
0.00619259
0.00619926
0.00619559
0.00620095
0.00620076
0.00619556
0.00620209
0.00620395
0.00619977
0.00620242
0.00620145
0.0062027
0.00620247
0.00620363
0.00620338
0.00620537
0.0062081
0.00621127
0.00621858
0.0062174
0.0054643
0.00317438
0.0020953
0.00159395
0.00140115
0.00135783
0.00135978
0.00137599
0.00140303
0.00136173
0.0011723
0.000930746
0.000680565
0.000485525
0.000360857
0.000281871
0.000227903
0.000184956
0.00015113
0.000128595
0.000115742
0.000102812
0.000112211
0.00615949
0.00618721
0.00618139
0.00619027
0.00621577
0.00620881
0.00619927
0.00619909
0.0061995
0.00620586
0.00619869
0.00620311
0.00620163
0.00619911
0.0062027
0.00620016
0.00620151
0.00620226
0.0062025
0.00620521
0.00620601
0.00620839
0.00621266
0.00622022
0.00622399
0.00555788
0.00325554
0.00215948
0.0016481
0.00145804
0.00142627
0.00144757
0.00149348
0.0015566
0.00154581
0.00133708
0.00103784
0.000738237
0.000521529
0.000388632
0.000307581
0.000251505
0.000205343
0.000168699
0.000145496
0.00013441
0.000120069
0.000139172
0.00619854
0.00618799
0.00619246
0.00620438
0.0062084
0.00620599
0.00619912
0.00619654
0.00619973
0.00620362
0.00619929
0.00620174
0.00620202
0.00619985
0.0062015
0.00620156
0.00620253
0.00620202
0.00620162
0.00620419
0.00620594
0.00620875
0.006214
0.00621876
0.00623052
0.0056541
0.00333117
0.00222519
0.0017074
0.00151862
0.00149991
0.00154426
0.00162855
0.00174405
0.00177917
0.00154256
0.00116218
0.000803264
0.000562021
0.000421413
0.000337571
0.000278976
0.000228492
0.000188586
0.00016481
0.000157437
0.000141111
0.000171691
0.00618207
0.00618304
0.00619744
0.00619268
0.00620038
0.00619515
0.00619889
0.00620125
0.00619759
0.00620331
0.00620128
0.00620311
0.00620062
0.00619907
0.00620228
0.00620199
0.00620398
0.00620233
0.00620268
0.00620538
0.00620615
0.00620922
0.00621403
0.00622245
0.00623935
0.0057677
0.00341218
0.00229412
0.00176868
0.00158512
0.00157995
0.0016526
0.00178659
0.00197757
0.00208353
0.00180141
0.00130414
0.000873548
0.00060614
0.000458428
0.000372269
0.000309727
0.000254162
0.00021049
0.000186995
0.000184758
0.000166101
0.000209684
0.00618279
0.00622095
0.0061805
0.00620668
0.00618588
0.00620179
0.00619851
0.0062015
0.00620085
0.00620129
0.00620135
0.00619792
0.00620198
0.00619831
0.00620253
0.0062019
0.00620376
0.00620206
0.0062025
0.00620581
0.00620625
0.0062098
0.006215
0.00622487
0.00623939
0.00588673
0.00350681
0.00236641
0.00183406
0.00165613
0.00166663
0.00177423
0.00197421
0.00227778
0.00249788
0.00212803
0.00146466
0.000947112
0.000654161
0.000498905
0.000410717
0.000342888
0.000280442
0.000233157
0.000211158
0.000217343
0.000195679
0.000254323
0.00618536
0.00621058
0.00619286
0.00621873
0.00619565
0.00620586
0.00619849
0.00620004
0.00620415
0.00620151
0.00620147
0.00620107
0.00620162
0.00619678
0.00620248
0.00620127
0.00620249
0.00620186
0.00620249
0.00620699
0.00620658
0.00620985
0.0062158
0.00622593
0.00624201
0.00603373
0.00362024
0.00244459
0.0019116
0.00173283
0.00176322
0.00191208
0.00219829
0.00267525
0.00309207
0.00253963
0.00163735
0.00102451
0.000703964
0.000544192
0.00045179
0.000378587
0.000307334
0.000255631
0.000236073
0.000254846
0.000229874
0.000305169
0.00618898
0.00618464
0.00617637
0.00619219
0.00619413
0.00620736
0.00620509
0.00620116
0.00621318
0.00620037
0.00620329
0.00619821
0.0062013
0.00619886
0.00620423
0.00620111
0.00620349
0.0062017
0.00620205
0.0062066
0.00620576
0.00621011
0.00621604
0.00622755
0.00623765
0.00618686
0.003746
0.0025317
0.00198966
0.00181598
0.00186889
0.00206794
0.00246969
0.00322302
0.00400906
0.00304461
0.00181412
0.00110042
0.000756897
0.000592383
0.000496169
0.000413329
0.000331838
0.000277051
0.000262116
0.000298994
0.000269857
0.000362507
0.00619348
0.00619503
0.00617816
0.00619386
0.00618531
0.00620945
0.0061926
0.00619665
0.00620787
0.00620099
0.00620239
0.00620044
0.00620432
0.0061999
0.0062057
0.00620222
0.00620237
0.00620289
0.00620289
0.00620612
0.00620648
0.00621053
0.00621683
0.00622538
0.0062437
0.00622663
0.00387069
0.00263304
0.0020771
0.00190664
0.00198662
0.00224624
0.00280007
0.00401319
0.00556732
0.00361434
0.00197516
0.00116921
0.000809733
0.000641602
0.000540047
0.000445675
0.000353781
0.00029547
0.000287579
0.000349973
0.000313779
0.000425256
0.00618273
0.0061962
0.0061827
0.00619815
0.00618786
0.00620085
0.00620037
0.00620231
0.00620305
0.00619763
0.00620129
0.00620055
0.00620075
0.00619868
0.00620587
0.0062021
0.00620443
0.00620319
0.0062022
0.00620651
0.00620628
0.00621102
0.00621682
0.00622778
0.00624052
0.00623496
0.00401201
0.00273689
0.00217098
0.0020077
0.00211613
0.00244867
0.00320229
0.00521732
0.00618111
0.004124
0.00209999
0.00123297
0.0008631
0.000692594
0.000582893
0.00047383
0.000370644
0.000310417
0.000312386
0.000407748
0.00036008
0.000483858
0.00620708
0.00620315
0.00619263
0.0061749
0.00619206
0.00619929
0.00620853
0.0061977
0.00619687
0.00620094
0.0061987
0.00620392
0.0062006
0.00619952
0.00620457
0.00620224
0.00620511
0.00620305
0.00620197
0.00620616
0.00620732
0.00621078
0.00621673
0.0062309
0.00624845
0.00624501
0.00415391
0.00285462
0.00227232
0.00211724
0.00225935
0.00267549
0.00368341
0.00617837
0.00618311
0.00434656
0.0021705
0.00129239
0.000919582
0.000743783
0.000623437
0.000497969
0.000382061
0.000321267
0.000338687
0.000476406
0.000405499
0.0005149
0.00621205
0.00619735
0.00618996
0.00618599
0.00620865
0.00620968
0.00620684
0.00619813
0.00620661
0.00620505
0.00619261
0.00620333
0.00619783
0.00619862
0.00620422
0.00620117
0.00620153
0.00620334
0.00620352
0.00620594
0.00620704
0.00621161
0.0062186
0.0062307
0.00625365
0.00624515
0.00432381
0.00297694
0.00238396
0.00223868
0.00241741
0.00292597
0.00423455
0.00618118
0.00618345
0.00418926
0.00219504
0.00135743
0.000983027
0.000795625
0.00066117
0.000516683
0.000388715
0.000328311
0.000366826
0.00056542
0.000450177
0.000490506
0.00619631
0.00619499
0.00617614
0.00618508
0.00619587
0.0062078
0.00621445
0.00619797
0.00620084
0.00620112
0.00619777
0.0062038
0.00619951
0.00619625
0.00620142
0.00620192
0.00620286
0.00620341
0.00620242
0.00620537
0.0062066
0.00621144
0.0062198
0.00623418
0.00624899
0.00624555
0.0045056
0.00311096
0.00250292
0.00237117
0.00258941
0.00319635
0.0048041
0.00618749
0.00618506
0.00382893
0.0021827
0.00141782
0.00104882
0.000851227
0.000694782
0.000528384
0.000390989
0.000331367
0.000396885
0.000672857
0.000502805
0.000423617
0.00621041
0.00619926
0.00620241
0.00617809
0.00620435
0.00620272
0.0062079
0.00619568
0.00620122
0.00619581
0.00619681
0.00620272
0.0061994
0.00619805
0.00620181
0.00620139
0.00620304
0.00620244
0.00620153
0.00620548
0.00620599
0.00621089
0.00622039
0.00623363
0.0062544
0.00624089
0.0047087
0.00325919
0.00264185
0.00251438
0.00277348
0.00347265
0.0052683
0.00619048
0.00618821
0.00343775
0.00214617
0.00146979
0.00111112
0.000902812
0.000721437
0.000533996
0.000389446
0.000331511
0.000432788
0.000765227
0.000561069
0.00034668
0.00622129
0.00620387
0.00618451
0.00617476
0.00619461
0.00621047
0.00619861
0.00619807
0.00621045
0.00620222
0.00619585
0.00619969
0.00619867
0.00619911
0.00620064
0.00620369
0.00620078
0.00620134
0.00620155
0.00620599
0.00620647
0.006211
0.00622142
0.00623106
0.00625315
0.00624246
0.00493033
0.00342056
0.00279091
0.00267209
0.0029677
0.00373391
0.00548636
0.00619444
0.00510735
0.00308688
0.00208953
0.00151421
0.00117752
0.000954232
0.000744589
0.000533293
0.000382781
0.000327666
0.00047001
0.000761169
0.000628701
0.00028132
0.00619059
0.0061911
0.0061931
0.00619063
0.00619179
0.00619886
0.00619792
0.00618964
0.00620765
0.00619725
0.00619577
0.00620454
0.00619768
0.00619922
0.00619886
0.00620365
0.00620092
0.00620347
0.00620288
0.00620456
0.00620668
0.00621072
0.00622171
0.00623263
0.00625386
0.00624768
0.00517962
0.00361399
0.00295061
0.0028388
0.00316704
0.00395468
0.00539604
0.00597523
0.00417299
0.00279707
0.00201886
0.00154197
0.00123572
0.000997192
0.000756701
0.000526084
0.000371559
0.000322106
0.000504982
0.000653266
0.000711255
0.000231842
0.00618789
0.00619625
0.00617479
0.0061766
0.00620148
0.00619409
0.00619847
0.00618953
0.00620531
0.00620401
0.00620167
0.00620545
0.00619793
0.00620111
0.00620042
0.00620369
0.0062006
0.00620218
0.0062041
0.00620387
0.00620727
0.00621153
0.00622201
0.00623202
0.00624999
0.00624937
0.00543034
0.00382404
0.00311939
0.00301642
0.00336356
0.00411173
0.00508398
0.00489694
0.00357327
0.00256885
0.00194608
0.00154948
0.00127904
0.00102557
0.000757419
0.000514079
0.00035977
0.000314757
0.000531534
0.00052962
0.000800734
0.000194357
0.0061847
0.00619255
0.00618972
0.00617729
0.00619129
0.00620629
0.00619816
0.00619755
0.00621252
0.00619993
0.00619976
0.00619927
0.00620596
0.00620042
0.00620065
0.00620466
0.00619883
0.00620173
0.00620489
0.00620441
0.00620866
0.00621124
0.00622236
0.00623154
0.00625281
0.00625303
0.00571148
0.00403824
0.00331341
0.00320054
0.00354495
0.00418852
0.00468421
0.00418076
0.00316147
0.00239424
0.00188485
0.00155149
0.00130352
0.00104686
0.000753288
0.000498617
0.000346321
0.000307185
0.00054072
0.000436998
0.000878765
0.000166341
0.00621245
0.00620214
0.00620517
0.00617774
0.00619252
0.00620542
0.00619343
0.00619992
0.0062057
0.00620396
0.00619558
0.00620344
0.00620324
0.00620049
0.00620065
0.00620467
0.00620057
0.00620185
0.00620396
0.00620669
0.00620774
0.00620997
0.00622179
0.00622978
0.00625296
0.00625166
0.00602871
0.004277
0.00351415
0.00339526
0.00370635
0.00418168
0.00428803
0.00368231
0.00286834
0.00225688
0.0018302
0.00154615
0.00132312
0.00105043
0.000739825
0.00047992
0.000332293
0.000297874
0.000523516
0.000372777
0.000934721
0.000145996
0.00617206
0.00620351
0.00620607
0.0061833
0.00620291
0.0062087
0.0061999
0.00619339
0.00620706
0.00619711
0.00619632
0.00620027
0.00620368
0.00620045
0.00620052
0.00620705
0.00619744
0.00620067
0.00620412
0.0062072
0.00620707
0.00621061
0.00622132
0.00623107
0.00625029
0.00625744
0.00622899
0.00452598
0.00372881
0.00358884
0.00383898
0.00410647
0.00393505
0.00332158
0.00264805
0.00214371
0.00178316
0.00153042
0.00132932
0.00105005
0.000717789
0.00045983
0.000317336
0.000289398
0.000490511
0.000333262
0.00093805
0.000131506
0.00620248
0.00620188
0.00619899
0.00619087
0.00620342
0.00621063
0.00620744
0.00619889
0.00621184
0.00619779
0.00619251
0.00620294
0.00620836
0.00620059
0.00620021
0.0062039
0.00619891
0.00620373
0.0062043
0.00620873
0.00620683
0.00621166
0.0062196
0.00623273
0.00625057
0.00625861
0.00622639
0.00479302
0.00395351
0.00377978
0.00393503
0.00398898
0.00363606
0.00304773
0.00247905
0.0020535
0.00173889
0.00151769
0.00132542
0.00103683
0.000694283
0.00043697
0.000303238
0.000279535
0.000457642
0.00030408
0.000923563
0.000120669
0.00620344
0.00619939
0.00618768
0.00619019
0.00620487
0.00621799
0.00620348
0.00620135
0.00621144
0.00620492
0.00619595
0.00619853
0.00620614
0.0062004
0.00619686
0.0062025
0.00619738
0.0062037
0.0062046
0.00620828
0.00620698
0.00621296
0.00622065
0.0062337
0.00624619
0.00626001
0.00622668
0.00507276
0.00418399
0.0039598
0.00399576
0.00385003
0.00338652
0.00283593
0.00234564
0.00197427
0.00169729
0.00149919
0.00131628
0.00101523
0.000664164
0.000416739
0.000289625
0.000270665
0.000426761
0.00028825
0.000851187
0.000111543
0.00622975
0.00620424
0.00618974
0.00618948
0.00619332
0.00621872
0.00620762
0.00621191
0.00620788
0.00619691
0.00619516
0.00619827
0.00621023
0.00620229
0.00619981
0.00620327
0.0061972
0.00620135
0.00620449
0.0062077
0.00620624
0.00621317
0.00622155
0.00623501
0.00624703
0.00626024
0.00623033
0.00536177
0.0044173
0.00412499
0.00402137
0.00370585
0.00317931
0.0026667
0.0022377
0.00190825
0.00165981
0.00147827
0.0012992
0.000985351
0.00063324
0.00039326
0.000273364
0.000262907
0.000396443
0.000291229
0.000707999
0.000107526
0.00621911
0.00620293
0.00619326
0.00618594
0.00620136
0.00621014
0.00620026
0.00621744
0.00621231
0.00619608
0.00620386
0.00619863
0.0062051
0.00620188
0.00620085
0.00620654
0.00619699
0.00620065
0.00620306
0.00620628
0.00620736
0.00621168
0.00622013
0.00623396
0.00624523
0.00625463
0.0062408
0.00565075
0.0046511
0.00426798
0.00401694
0.00356835
0.00300934
0.0025289
0.00214517
0.00185192
0.00162621
0.00145709
0.00127557
0.000957299
0.000601687
0.000374145
0.000261362
0.000253643
0.000365126
0.000309406
0.000582204
0.000107645
0.006216
0.00618715
0.0062004
0.00616821
0.00618909
0.00620457
0.00619161
0.00620959
0.00620609
0.00619862
0.00619737
0.00619626
0.00620032
0.00620268
0.00619878
0.00620495
0.00619441
0.00620068
0.00620078
0.00620359
0.00620814
0.00621463
0.00621944
0.00623256
0.00624306
0.00625201
0.00624541
0.00592041
0.00487072
0.00439235
0.0039887
0.003439
0.00286284
0.00241378
0.00206977
0.00180049
0.00159477
0.00143688
0.00124705
0.000918994
0.000569762
0.000353966
0.000249839
0.000245163
0.000336689
0.000325174
0.000495744
0.000106814
0.0061732
0.00619067
0.00618946
0.00619415
0.0062026
0.00620875
0.00620442
0.00619748
0.0062
0.00619159
0.00619766
0.00620071
0.00619885
0.00620387
0.00619889
0.00620071
0.0061985
0.00619748
0.00620296
0.00620235
0.00621034
0.00621555
0.00622038
0.00622888
0.00623865
0.00625241
0.00624378
0.00619154
0.00506418
0.00448646
0.00394241
0.00331487
0.00273875
0.00231342
0.00199916
0.00175077
0.00156319
0.00141518
0.00121838
0.000875798
0.000538499
0.00033327
0.000236321
0.00023423
0.000310499
0.000335747
0.000430206
0.000105254
0.00619872
0.00618906
0.00616204
0.00618512
0.00617391
0.00619998
0.00619879
0.00620346
0.00620276
0.00620192
0.00619748
0.00619717
0.00619627
0.00621056
0.00619881
0.0062055
0.00619894
0.00619723
0.00620528
0.00620089
0.00621493
0.00621546
0.00622174
0.00623009
0.00623951
0.00625955
0.00624678
0.00620988
0.00523945
0.00454735
0.00388088
0.00320079
0.0026293
0.0022259
0.00193578
0.00170852
0.00153189
0.00138966
0.00118584
0.000834791
0.000506653
0.000315645
0.000225436
0.000224124
0.000287869
0.000334688
0.000387092
0.000103378
0.00616925
0.0061936
0.00617219
0.00616547
0.00618908
0.00621046
0.00619445
0.00620633
0.00620188
0.00619234
0.00619791
0.0062066
0.00619536
0.0062111
0.00620097
0.00620414
0.00620283
0.00619801
0.00620552
0.00620198
0.00621348
0.00621397
0.00622247
0.00622892
0.00624428
0.00626421
0.00624598
0.0062057
0.00537073
0.00457982
0.00380697
0.00309272
0.00253309
0.00214583
0.00187671
0.00166802
0.00150335
0.00136379
0.00114504
0.000787142
0.000475585
0.000296294
0.000212371
0.000214177
0.000266728
0.000330432
0.000346685
0.000101345
0.00614429
0.00620216
0.00618423
0.00618688
0.00618466
0.0061982
0.00621756
0.00620131
0.00620366
0.00620208
0.00619115
0.0062018
0.00620035
0.00620832
0.0061989
0.00620819
0.00620088
0.00619547
0.00620752
0.00620139
0.00621049
0.0062134
0.00621935
0.00622683
0.00624754
0.00626762
0.00624671
0.00620252
0.00546204
0.0045736
0.0037229
0.0029925
0.00244602
0.0020741
0.00182134
0.00162484
0.00147331
0.00133381
0.0011033
0.000744696
0.000447271
0.000280461
0.000202686
0.000204964
0.000248599
0.000321443
0.000318224
9.87882e-05
0.00615724
0.00622333
0.00620385
0.00616789
0.00618747
0.0061959
0.00620185
0.0062008
0.0062055
0.00619546
0.0061988
0.0062021
0.00620428
0.00620462
0.0062062
0.00620559
0.00620049
0.00619772
0.00620419
0.00620325
0.00621067
0.00621154
0.00621983
0.00623113
0.00625363
0.00626749
0.00624748
0.00620184
0.0054974
0.00453116
0.0036291
0.00289635
0.00236535
0.0020066
0.00176408
0.00158462
0.0014439
0.00130624
0.00105965
0.000703376
0.000420585
0.000265163
0.000193828
0.000195147
0.000231859
0.000308411
0.000291627
9.73856e-05
0.00612003
0.00620562
0.00617393
0.00618183
0.00618405
0.00619529
0.00618745
0.00620188
0.00621079
0.00619928
0.00620471
0.00620535
0.00619799
0.00619938
0.0061998
0.00620812
0.00620063
0.0061964
0.00620434
0.00620264
0.00620869
0.00620807
0.00621526
0.00623234
0.00625873
0.00626871
0.00625017
0.00619921
0.00547923
0.0044555
0.00352819
0.00280536
0.00228897
0.00194123
0.00170945
0.00153937
0.00140826
0.00127571
0.00101179
0.000664989
0.000396036
0.000251423
0.000182898
0.000188244
0.000218216
0.000293282
0.000269605
9.55354e-05
0.00615566
0.00617529
0.00619595
0.00620109
0.00620431
0.00618097
0.0061851
0.00620325
0.00620605
0.00620193
0.00619878
0.00620812
0.00619444
0.00619759
0.00620249
0.00620162
0.00620108
0.00619446
0.00619788
0.00620015
0.00620766
0.00620987
0.00621694
0.00623198
0.006259
0.0062668
0.00624953
0.00619465
0.00541331
0.00435166
0.00342179
0.00271642
0.00221671
0.00187838
0.0016521
0.00149149
0.0013683
0.00123642
0.00096853
0.000623492
0.000373044
0.000237118
0.000174749
0.000180589
0.000206392
0.000278792
0.000251649
9.30189e-05
0.00615052
0.00614538
0.00617247
0.00619317
0.00618531
0.00619685
0.00617799
0.00620149
0.00620837
0.00619843
0.0061992
0.00621286
0.00620097
0.00620175
0.0062001
0.00620426
0.00619755
0.00619063
0.00620135
0.00620357
0.00621023
0.00621295
0.00621956
0.00623235
0.00626124
0.00626822
0.0062536
0.00619434
0.00529777
0.00422152
0.0033087
0.002625
0.00214553
0.00181803
0.00160064
0.00144243
0.0013318
0.00120401
0.000924238
0.000584919
0.000350551
0.000225573
0.00016735
0.000172442
0.000195424
0.000262746
0.00023413
9.18417e-05
0.00615263
0.00618125
0.00619958
0.00619209
0.00619656
0.00619325
0.00616698
0.00620279
0.00621839
0.0062041
0.00619487
0.00620874
0.00619349
0.00620154
0.00620572
0.00620032
0.00619513
0.00619406
0.00619746
0.00620687
0.00621204
0.00621229
0.00621857
0.00623525
0.00626123
0.00626245
0.00625175
0.00619319
0.00513584
0.004074
0.00318638
0.00253256
0.00207376
0.00176262
0.0015508
0.00139935
0.00129428
0.00117101
0.000882382
0.000550359
0.000328567
0.0002126
0.000159504
0.000167357
0.000188125
0.000247916
0.000221036
8.9013e-05
0.00616385
0.00617375
0.00619621
0.00622199
0.00619472
0.00620646
0.0061653
0.00622686
0.00619651
0.00619298
0.00619651
0.00620794
0.00619333
0.00620597
0.00620169
0.00620035
0.00619651
0.00619778
0.00620136
0.00620295
0.00620855
0.00621186
0.00622175
0.0062376
0.00625745
0.00625732
0.00624859
0.0061888
0.00496317
0.00390414
0.00305931
0.00243619
0.00200397
0.00170219
0.00149642
0.00135474
0.00125755
0.00114232
0.000857221
0.00052262
0.000310542
0.000201637
0.00015201
0.000159735
0.000180263
0.000233876
0.00020667
8.63608e-05
0.006199
0.00620732
0.00619647
0.00618779
0.00620913
0.00618816
0.00616307
0.0062046
0.00618819
0.00619367
0.00619677
0.00620271
0.00618901
0.00620615
0.00620253
0.00620023
0.00619918
0.00619608
0.00619761
0.00620608
0.00620847
0.00621169
0.00622239
0.00623518
0.00625428
0.00625854
0.00624547
0.00618036
0.00476588
0.00372809
0.00292746
0.00233669
0.00192349
0.00163464
0.001438
0.00130071
0.00121474
0.00111842
0.000831456
0.000495781
0.00029337
0.000191558
0.000145284
0.000155407
0.000172319
0.000223658
0.000191401
8.44945e-05
0.00616406
0.00618539
0.00619842
0.00618789
0.00620031
0.0062025
0.00616292
0.00621719
0.00619312
0.00619537
0.00618684
0.0062094
0.0061932
0.00620493
0.00620293
0.00619882
0.00619655
0.006199
0.00620173
0.0062062
0.00620772
0.00621196
0.00622314
0.00623934
0.00625223
0.00625986
0.00624478
0.00599072
0.00453797
0.00354549
0.00279272
0.00222971
0.00183813
0.0015697
0.00137332
0.00124098
0.00116209
0.00108935
0.000805816
0.000476297
0.000280801
0.000180921
0.000138977
0.00015177
0.000167938
0.000214732
0.000175433
8.03781e-05
0.00619707
0.00617615
0.00618092
0.00618439
0.00622075
0.00616685
0.00616337
0.00622897
0.00619743
0.00619208
0.00618292
0.00620532
0.00619834
0.00619482
0.00620746
0.0061987
0.0062009
0.00619832
0.00620462
0.00621088
0.00620771
0.00621872
0.006224
0.00623807
0.00625373
0.00625539
0.00624007
0.00573999
0.00431588
0.00335739
0.00265042
0.0021231
0.00175257
0.00150035
0.0013092
0.00117718
0.00110612
0.00105103
0.000774548
0.000454801
0.000263971
0.000173269
0.000132934
0.00014745
0.000161907
0.000206182
0.000168696
7.51154e-05
0.00620352
0.00617972
0.00621401
0.00617275
0.00619955
0.0061732
0.00617283
0.00621345
0.00619973
0.00619239
0.00617115
0.00620471
0.00619678
0.00620242
0.00620205
0.0061981
0.0062009
0.00619198
0.00620273
0.00620917
0.00620774
0.00621781
0.00622104
0.00623716
0.00625854
0.00625273
0.00623136
0.00549286
0.00408694
0.0031727
0.0025108
0.00201587
0.00166783
0.00143631
0.00124718
0.00111635
0.00104379
0.00100268
0.000742864
0.00043289
0.000251084
0.00016309
0.000127522
0.000144126
0.000160551
0.00019857
0.000159464
7.38471e-05
0.00622964
0.00617091
0.00621103
0.00621119
0.00621076
0.00619616
0.00617292
0.00622473
0.00620056
0.00619394
0.00617637
0.00619971
0.00618891
0.00619877
0.00620101
0.00619789
0.00619877
0.00619368
0.00620067
0.00620924
0.00621123
0.00621626
0.00622172
0.00623482
0.00626785
0.00625494
0.00622518
0.00523216
0.00387179
0.00299793
0.00237534
0.00191254
0.00158485
0.00136854
0.0011891
0.00105804
0.000984115
0.000956076
0.000719571
0.000416532
0.00023919
0.000155962
0.000121853
0.000142886
0.000159374
0.000194945
0.000152526
7.05334e-05
0.00621059
0.00617074
0.00615297
0.00618069
0.00619475
0.00617531
0.00619988
0.00622225
0.00618995
0.00619365
0.00618148
0.00619607
0.00619708
0.00619449
0.00620656
0.00619908
0.00620004
0.00619872
0.00620744
0.00620488
0.00620882
0.00621723
0.00622216
0.00623551
0.00627246
0.00625186
0.00622086
0.00497036
0.003655
0.00282484
0.00224328
0.00181093
0.00150467
0.00130371
0.00113161
0.00100234
0.000925357
0.000912473
0.000704374
0.000404881
0.000230955
0.000149347
0.000118841
0.000140649
0.000158639
0.000191837
0.00014189
6.65806e-05
0.00617086
0.00616916
0.00619315
0.00615434
0.00620387
0.00619288
0.00617405
0.00622876
0.00619938
0.00619402
0.00618039
0.00619463
0.00619626
0.00620023
0.00619959
0.00619869
0.00619848
0.00619808
0.00620477
0.00620594
0.00620863
0.00621797
0.00621829
0.00623867
0.00628135
0.00625261
0.00621142
0.00473959
0.00344754
0.00266113
0.00211749
0.00171718
0.0014249
0.00123656
0.00107507
0.000946712
0.000865345
0.000860842
0.000693043
0.000399247
0.000224169
0.000143538
0.00011512
0.000136949
0.00015686
0.000186131
0.00013089
6.26924e-05
0.00613102
0.00616844
0.00619727
0.00615991
0.00618577
0.00619454
0.00618897
0.00623787
0.0061991
0.00619172
0.00618102
0.0061898
0.00619609
0.00620144
0.00619494
0.00619835
0.00619995
0.00619918
0.00620539
0.00620212
0.0062104
0.00621227
0.00621967
0.00623852
0.00628239
0.00624935
0.00620528
0.00449963
0.00325266
0.00250645
0.00199689
0.00162704
0.00135142
0.0011698
0.00101878
0.000892503
0.000806173
0.000803791
0.000679362
0.000390992
0.000217703
0.00013874
0.000110931
0.00013595
0.000158198
0.000183911
0.000125479
5.92889e-05
0.00615938
0.00616856
0.00623432
0.0061831
0.00616126
0.00619249
0.00619232
0.00621533
0.0061978
0.00620274
0.00618444
0.00620106
0.00619674
0.00620558
0.00620446
0.00619777
0.00619947
0.00619891
0.00620538
0.00620502
0.00621077
0.00621346
0.00622141
0.00624197
0.00628838
0.00625305
0.00620187
0.00427153
0.00306658
0.00236096
0.00188236
0.00153585
0.00128029
0.00110791
0.000963908
0.000845803
0.000752065
0.000746513
0.000661456
0.000390657
0.000213225
0.000134369
0.000109827
0.000135138
0.000157885
0.00018212
0.000118071
5.63892e-05
0.00620024
0.00618042
0.00622543
0.00617881
0.00615597
0.00617078
0.00618492
0.00618882
0.00620026
0.00618179
0.00618998
0.00620592
0.00619708
0.00620802
0.00621413
0.0061979
0.00620234
0.00620163
0.00620123
0.00619948
0.0062148
0.00621648
0.00622505
0.00624132
0.00628476
0.00625125
0.00612241
0.00404872
0.00290792
0.00222514
0.00177414
0.00145192
0.0012101
0.00104605
0.00091332
0.000797431
0.000702093
0.000687903
0.00063631
0.000387134
0.000209031
0.000132036
0.000108545
0.000134912
0.000156725
0.000175948
0.000109892
5.19381e-05
0.00615686
0.0061904
0.00620983
0.00617813
0.00614872
0.00616903
0.00619017
0.00615474
0.00619571
0.00620047
0.00619491
0.00621764
0.00619865
0.00619996
0.00620477
0.00620239
0.00620014
0.00619799
0.0062045
0.00620025
0.00621312
0.00621435
0.00622043
0.0062424
0.00628322
0.00625535
0.00584425
0.00385142
0.00275019
0.00210389
0.00167527
0.00137098
0.00114149
0.000988531
0.000861866
0.000754407
0.000658368
0.000632426
0.000604844
0.000390537
0.000209638
0.000130359
0.000106966
0.000133541
0.000152797