/*--------------------------------*- C++ -*----------------------------------*\
  =========                 |
  \\      /  F ield         | OpenFOAM: The Open Source CFD Toolbox
   \\    /   O peration     | Website:  https://openfoam.org
    \\  /    A nd           | Version:  10
     \\/     M anipulation  |
\*---------------------------------------------------------------------------*/
FoamFile
{
    format      ascii;
    class       volScalarField;
    location    "5";
    object      omega;
}
// * * * * * * * * * * * * * * * * * * * * * * * * * * * * * * * * * * * * * //

dimensions      [0 0 -1 0 0 0 0];

internalField   nonuniform List<scalar> 
38016
(
15.7926
15.8186
15.8725
15.9081
15.9469
15.9987
16.0005
16.0303
16.039
16.0469
16.0578
16.066
16.0761
16.0825
16.086
16.0915
16.0963
16.0976
16.1007
16.1043
16.1071
16.1121
16.1178
16.1303
16.146
16.1639
16.1959
16.2557
16.2419
16.289
16.3171
16.3523
16.4192
16.3609
16.5146
16.5384
16.5696
16.5871
16.8113
16.9002
16.9624
17.1387
17.1272
17.5062
17.6327
18.2432
18.4259
18.6846
15.7534
15.8409
15.8766
15.91
15.9491
16.0007
16.0028
16.034
16.0401
16.0512
16.0556
16.0723
16.0764
16.0828
16.0861
16.0915
16.0969
16.0977
16.1027
16.1062
16.107
16.1128
16.1179
16.1299
16.1458
16.1572
16.2054
16.2512
16.2545
16.2903
16.3283
16.3664
16.4073
16.3816
16.4226
16.504
16.5228
16.6339
16.65
16.8595
17.0092
17.1781
17.3684
17.5792
17.6432
18.5042
18.7255
19.3187
15.7954
15.8053
15.8785
15.9114
15.9431
16.0009
16.0069
16.0441
16.0371
16.0438
16.0557
16.0685
16.0765
16.0817
16.0862
16.0916
16.0983
16.097
16.1013
16.1053
16.1065
16.1111
16.1165
16.1282
16.142
16.1587
16.1916
16.2493
16.2525
16.2979
16.3282
16.3647
16.4087
16.4159
16.4437
16.5114
16.5341
16.6172
16.674
16.8789
16.8125
17.1807
17.3288
17.5948
18.0937
18.593
18.8255
19.3575
15.7518
15.8064
15.8683
15.8965
15.9425
16.0014
16.0039
16.033
16.0361
16.0479
16.0559
16.0644
16.0732
16.0817
16.0866
16.0894
16.096
16.0971
16.1026
16.105
16.1065
16.1111
16.1173
16.1279
16.1444
16.1559
16.2021
16.2516
16.2547
16.3037
16.3291
16.3335
16.3597
16.4139
16.4454
16.4964
16.5311
16.6148
16.6781
16.9015
16.989
17.2197
17.1826
17.6447
18.1357
18.6822
19.0079
19.2872
15.7438
15.8077
15.8744
15.8976
15.9403
16.0019
15.9992
16.0265
16.0407
16.0419
16.0626
16.0627
16.0731
16.0825
16.0854
16.0906
16.095
16.0969
16.1
16.1041
16.106
16.1114
16.1174
16.1293
16.1457
16.1618
16.2093
16.2594
16.2535
16.3056
16.3347
16.3668
16.3757
16.4157
16.4376
16.4529
16.5227
16.608
16.5651
16.8953
16.9946
17.2568
17.4931
17.3296
18.1555
18.6962
18.9403
19.0152
15.7436
15.8415
15.8963
15.8986
15.9625
16.0185
15.9922
16.0189
16.0271
16.0514
16.0554
16.0665
16.0707
16.0836
16.0853
16.0883
16.0949
16.096
16.0995
16.1047
16.1073
16.1115
16.1176
16.1303
16.1488
16.1566
16.209
16.2686
16.2849
16.314
16.3544
16.3644
16.3689
16.4066
16.4383
16.4956
16.4801
16.6252
16.5995
16.8785
17.1041
17.3196
17.1717
17.6768
18.0925
18.6301
18.2817
19.002
15.7426
15.8074
15.8624
15.9003
15.9484
15.9987
15.9794
16.0188
16.0359
16.0477
16.0553
16.0611
16.0698
16.0795
16.0842
16.0878
16.0946
16.0976
16.1019
16.1032
16.1057
16.1107
16.1181
16.1307
16.1517
16.1613
16.2141
16.2712
16.2807
16.3144
16.3556
16.3652
16.3314
16.4002
16.4202
16.4696
16.5072
16.52
16.5874
16.8419
17.0882
17.3081
17.3447
17.3711
17.9958
17.9182
18.9153
17.8824
15.7489
15.806
15.8634
15.8928
15.9333
16.0067
15.9918
16.0164
16.0274
16.0453
16.0556
16.0605
16.067
16.0843
16.0843
16.0879
16.0966
16.0951
16.1008
16.1029
16.1057
16.1118
16.1187
16.132
16.1553
16.1572
16.216
16.2803
16.2975
16.3162
16.3578
16.362
16.3376
16.3907
16.3901
16.419
16.463
16.5159
16.653
16.8437
17.068
17.2738
17.5305
17.8278
17.5529
18.1067
18.0456
18.0352
15.74
15.8087
15.8648
15.8926
15.939
15.9745
15.9812
16.0191
16.029
16.0372
16.0561
16.0611
16.0669
16.0811
16.0829
16.0872
16.0928
16.0949
16.1
16.101
16.1064
16.1111
16.1191
16.1323
16.1566
16.1648
16.2227
16.2828
16.2884
16.3146
16.3542
16.3762
16.3396
16.391
16.3776
16.4018
16.4447
16.4666
16.5468
16.8066
16.8182
17.2237
17.5526
17.3653
17.5579
18.2764
18.3365
18.1659
15.7819
15.8123
15.8974
15.8865
15.9388
15.953
15.998
16.0293
16.0298
16.0364
16.0576
16.0602
16.065
16.0777
16.0827
16.0859
16.0921
16.0939
16.0976
16.1011
16.1051
16.1105
16.1196
16.1318
16.1588
16.1742
16.213
16.2865
16.3064
16.3134
16.3639
16.3777
16.3741
16.3808
16.3756
16.3836
16.3618
16.435
16.6131
16.8013
16.9478
16.9028
17.1431
17.6564
17.5497
18.2358
18.3001
17.5102
15.7513
15.8205
15.8772
15.8889
15.918
15.9697
15.993
16.015
16.0315
16.0463
16.064
16.0585
16.0652
16.0785
16.0814
16.0857
16.0909
16.0937
16.097
16.1021
16.1046
16.1093
16.1202
16.134
16.1596
16.1874
16.2256
16.2878
16.3186
16.3078
16.3695
16.3894
16.3874
16.3741
16.3683
16.3502
16.3428
16.392
16.5291
16.742
16.9241
16.9685
17.3292
17.6481
17.7168
17.4594
17.5928
17.6663
15.7877
15.8138
15.9024
15.9087
15.9191
15.9498
15.9946
16.0069
16.0305
16.0416
16.0551
16.0589
16.0648
16.0798
16.0816
16.0886
16.0936
16.0959
16.0969
16.0992
16.1033
16.1094
16.121
16.1367
16.1589
16.2012
16.2318
16.293
16.2999
16.3164
16.3452
16.3804
16.3639
16.3637
16.339
16.3225
16.3366
16.3655
16.4195
16.7247
16.8668
16.9427
17.5304
17.1132
17.2353
17.5646
17.8997
17.5687
15.7341
15.8079
15.8642
15.874
15.9148
15.9477
15.9921
16.0115
16.0279
16.0377
16.0502
16.0574
16.0623
16.0755
16.0838
16.0834
16.0904
16.0919
16.0988
16.1004
16.1036
16.1094
16.1218
16.1397
16.1666
16.202
16.2199
16.2998
16.3096
16.3223
16.3466
16.3887
16.3777
16.359
16.3333
16.3011
16.2968
16.307
16.4259
16.5235
16.8394
17.0736
17.5249
17.2516
17.6537
17.3932
17.2849
16.9623
15.7353
15.833
15.8355
15.8991
15.9078
15.9666
15.9855
15.9984
16.0243
16.027
16.0523
16.0562
16.0655
16.0806
16.0773
16.0821
16.0897
16.0908
16.0956
16.0974
16.1044
16.1096
16.1219
16.1401
16.1658
16.2048
16.2323
16.2829
16.3191
16.3252
16.3421
16.376
16.3834
16.3377
16.3348
16.2939
16.308
16.3042
16.4397
16.6287
16.7639
17.0561
17.5107
17.4229
18.0632
17.3433
17.6747
17.1471
15.7354
15.7721
15.848
15.868
15.9285
15.9491
15.9694
15.9994
16.0161
16.0245
16.044
16.0628
16.0597
16.0771
16.0769
16.0818
16.0859
16.0905
16.0953
16.0969
16.1036
16.1097
16.1222
16.142
16.1682
16.2002
16.229
16.2888
16.3456
16.3656
16.3418
16.4018
16.3661
16.3385
16.3107
16.2623
16.2969
16.3196
16.4619
16.6089
16.7367
16.9815
17.5049
17.1681
17.6016
17.3993
17.1163
17.2975
15.7434
15.7559
15.8192
15.8628
15.9037
15.9455
15.9664
15.9956
16.011
16.0242
16.0443
16.0546
16.0595
16.0808
16.076
16.0811
16.0889
16.0898
16.0952
16.0957
16.102
16.111
16.1223
16.143
16.1698
16.2061
16.2629
16.2922
16.3622
16.3655
16.3484
16.3977
16.3645
16.3401
16.2779
16.254
16.2803
16.2582
16.4366
16.4109
16.5865
16.962
17.2001
17.15
17.9794
17.6802
17.2719
17.3174
15.7813
15.7747
15.8559
15.8928
15.9016
15.9595
15.9663
15.9945
15.9983
16.0239
16.0413
16.0589
16.0579
16.0742
16.076
16.0815
16.0851
16.0898
16.0963
16.0949
16.1041
16.1106
16.1224
16.145
16.1707
16.214
16.2847
16.3088
16.3508
16.3663
16.3298
16.3842
16.3442
16.3256
16.2709
16.2509
16.2736
16.2604
16.2915
16.5034
16.7089
16.8066
17.5299
17.2275
17.9931
17.6983
17.0226
16.9281
15.7263
15.7378
15.8411
15.8747
15.9277
15.9365
15.9807
15.996
15.9981
16.0228
16.0409
16.0524
16.0555
16.0682
16.0698
16.0769
16.0874
16.0853
16.0957
16.0942
16.1034
16.1103
16.1229
16.1452
16.173
16.2158
16.2744
16.3197
16.372
16.3612
16.3565
16.3884
16.3359
16.3143
16.262
16.2399
16.244
16.2388
16.3357
16.4703
16.6907
16.9625
17.3206
17.2821
17.6639
17.6524
17.124
17.1624
15.7063
15.739
15.8314
15.8542
15.9161
15.9367
15.9601
15.9905
15.9944
16.0292
16.0385
16.0494
16.0552
16.0709
16.0679
16.077
16.0813
16.0836
16.0936
16.0932
16.1029
16.1093
16.1228
16.1455
16.1715
16.226
16.283
16.3174
16.372
16.3623
16.3837
16.3706
16.3314
16.2963
16.2455
16.2403
16.2404
16.2453
16.2497
16.297
16.6626
16.7234
17.7375
17.3775
17.7792
17.6123
17.2786
16.8701
15.6965
15.7306
15.7984
15.8803
15.9075
15.9286
15.9602
15.9882
16.0046
16.0178
16.0392
16.041
16.053
16.0659
16.0669
16.0757
16.0809
16.0826
16.0942
16.0924
16.1015
16.1104
16.122
16.1452
16.1711
16.2276
16.2772
16.3156
16.3727
16.3773
16.3974
16.3642
16.3229
16.289
16.2438
16.2426
16.2313
16.2701
16.269
16.3335
16.5917
16.9689
17.7773
17.4797
17.8166
17.5601
16.9561
17.1547
15.6508
15.7143
15.794
15.8506
15.8814
15.9269
15.9529
15.9882
15.9918
16.0184
16.0446
16.041
16.059
16.0671
16.0654
16.0755
16.0841
16.0814
16.0919
16.0917
16.1013
16.1085
16.1216
16.1451
16.1702
16.2282
16.281
16.2972
16.3828
16.3764
16.4342
16.3573
16.3192
16.2837
16.2443
16.2423
16.2353
16.268
16.2999
16.2915
16.6717
17.1986
17.8293
17.6223
18.0272
17.5213
17.1487
17.2459
15.6781
15.7514
15.8299
15.8833
15.8764
15.9201
15.9507
15.9915
15.9915
16.0161
16.0314
16.0382
16.0513
16.0717
16.0652
16.0776
16.0783
16.0805
16.0907
16.0907
16.1016
16.1081
16.1212
16.1431
16.1735
16.2284
16.2777
16.2946
16.3815
16.3789
16.4232
16.3671
16.3149
16.2755
16.2463
16.2479
16.2372
16.2636
16.2263
16.3213
16.6466
17.1946
17.8447
17.8191
18.2981
17.2397
17.2598
17.7308
15.6298
15.6978
15.7986
15.8684
15.8795
15.9223
15.9448
15.9932
15.9892
16.0261
16.031
16.0376
16.0501
16.0651
16.0631
16.0718
16.0779
16.08
16.0882
16.0905
16.1036
16.1076
16.1188
16.1438
16.1766
16.2251
16.2759
16.2938
16.3852
16.3766
16.4299
16.3796
16.3321
16.2776
16.2528
16.2522
16.2385
16.26
16.2719
16.3192
16.4425
16.9279
17.5045
18.1113
18.6606
17.3592
17.4387
18.4682
15.6301
15.6886
15.8013
15.8672
15.8703
15.9249
15.944
15.978
15.9817
16.0206
16.0323
16.0452
16.0503
16.0622
16.0623
16.0642
16.0757
16.0822
16.0874
16.0903
16.1014
16.1071
16.1183
16.145
16.1803
16.23
16.2719
16.314
16.4007
16.3765
16.429
16.3737
16.3508
16.2866
16.2548
16.2572
16.2381
16.2545
16.2021
16.4008
16.548
17.1627
17.7905
18.5603
18.5837
17.2305
17.6739
19.4068
15.6126
15.7291
15.8129
15.8582
15.8676
15.9224
15.9448
15.9912
15.9808
16.0173
16.0332
16.0344
16.0512
16.0609
16.065
16.0637
16.0749
16.0755
16.0842
16.0917
16.0996
16.1073
16.1176
16.1437
16.1794
16.2268
16.2695
16.3219
16.3983
16.3704
16.4332
16.3755
16.3582
16.3145
16.2615
16.2588
16.2223
16.2388
16.2268
16.295
16.5274
17.3782
17.9566
19.2152
18.9617
17.5386
18.0001
20.6384
15.6124
15.6809
15.8413
15.851
15.8695
15.9194
15.9427
15.9762
15.9775
16.0077
16.021
16.0324
16.049
16.0579
16.0574
16.0625
16.0732
16.0753
16.0814
16.09
16.0962
16.1054
16.1184
16.1429
16.1801
16.227
16.2596
16.3536
16.3947
16.3817
16.4343
16.3773
16.3693
16.3487
16.2932
16.2715
16.2449
16.2318
16.2379
16.3943
16.662
17.5808
18.1813
19.8245
19.2646
17.8352
18.217
21.7529
15.6006
15.715
15.7998
15.8341
15.862
15.9044
15.952
15.9758
15.9685
16.0047
16.0201
16.0398
16.0361
16.0522
16.0555
16.0588
16.0769
16.0754
16.0764
16.0885
16.0918
16.105
16.1163
16.1434
16.1798
16.2323
16.2733
16.3547
16.4047
16.389
16.4389
16.3792
16.4048
16.3601
16.3196
16.2857
16.2579
16.2592
16.2847
16.3857
16.7509
17.7496
18.4074
19.7229
19.8897
18.3503
18.5475
22.1022
15.5764
15.6414
15.7438
15.8214
15.8582
15.8867
15.9398
15.9601
15.9637
15.9909
16.0147
16.0331
16.0334
16.0468
16.052
16.0582
16.0714
16.0732
16.0748
16.0855
16.0917
16.107
16.1168
16.1423
16.1794
16.2293
16.2779
16.3582
16.3969
16.4079
16.441
16.3868
16.4086
16.3929
16.3186
16.3135
16.2567
16.2942
16.2171
16.2768
16.7006
17.9769
18.6933
20.5865
20.0688
19.035
18.8297
21.6351
15.6217
15.6853
15.74
15.8013
15.8579
15.8864
15.924
15.9682
15.9602
15.991
16.0124
16.0321
16.0296
16.0371
16.0504
16.0555
16.073
16.0757
16.0742
16.0824
16.0939
16.1036
16.1154
16.1418
16.1793
16.2301
16.2989
16.3521
16.3996
16.4108
16.4462
16.389
16.4107
16.4053
16.3433
16.3337
16.2847
16.2753
16.2573
16.3527
16.8331
17.8848
18.9934
21.0442
20.0043
19.8613
19.2304
22.5215
15.5478
15.6337
15.7234
15.7666
15.8452
15.8806
15.9173
15.9514
15.9545
15.9882
16.019
16.0216
16.0272
16.036
16.0489
16.0545
16.0673
16.0711
16.073
16.0771
16.0909
16.1002
16.1169
16.1419
16.1764
16.2251
16.2977
16.3561
16.3929
16.4165
16.4491
16.4241
16.4278
16.4236
16.3652
16.3755
16.328
16.3399
16.2583
16.412
16.9726
18.3058
19.3669
22.1509
20.982
20.5645
19.658
23.3495
15.532
15.6664
15.7622
15.7684
15.8409
15.89
15.8957
15.9481
15.952
15.9821
16.004
16.0205
16.0247
16.0333
16.0533
16.0592
16.0678
16.0644
16.073
16.0764
16.0878
16.0961
16.1144
16.1375
16.1747
16.2265
16.2979
16.3556
16.3935
16.415
16.4574
16.4532
16.4402
16.4351
16.3942
16.4143
16.3913
16.3827
16.3061
16.5171
17.1965
18.7573
19.8097
22.3113
21.146
20.427
20.2707
24.6873
15.5276
15.5947
15.724
15.764
15.8634
15.8607
15.8975
15.9274
15.9456
15.9812
16.0046
16.0151
16.0213
16.0284
16.0444
16.0499
16.066
16.064
16.0775
16.0747
16.0891
16.0956
16.1111
16.1333
16.17
16.2313
16.2918
16.3567
16.3945
16.4171
16.4689
16.494
16.4757
16.4978
16.4373
16.4206
16.4074
16.3913
16.3472
16.3752
17.3994
19.4674
20.1313
22.2947
21.0674
21.223
20.8833
26.2262
15.5238
15.5984
15.7292
15.7525
15.8312
15.8613
15.8931
15.9278
15.9439
15.9804
15.9898
16.0129
16.0193
16.0269
16.0396
16.0484
16.0645
16.0626
16.0736
16.073
16.0857
16.0988
16.1075
16.1323
16.1693
16.2326
16.2818
16.3509
16.3971
16.4256
16.4926
16.4989
16.4925
16.5198
16.5037
16.5022
16.4864
16.3519
16.3627
16.4601
17.4471
20.4196
20.7669
22.3577
22.6712
21.1058
21.426
26.8373
15.5157
15.5833
15.7416
15.7934
15.835
15.8557
15.9193
15.9257
15.9423
15.9736
15.9897
16.0175
16.0178
16.0249
16.0436
16.0461
16.0688
16.0598
16.07
16.0721
16.0829
16.0938
16.1088
16.1274
16.1683
16.2317
16.2845
16.3416
16.3921
16.446
16.4982
16.5138
16.5528
16.5945
16.5706
16.4807
16.5742
16.3995
16.4054
16.5269
17.7259
21.4229
21.5387
23.8204
23.0366
22.2242
22.3856
29.2259
15.5704
15.5821
15.7242
15.7653
15.7972
15.8473
15.9048
15.9238
15.9539
15.9878
15.9864
16.0062
16.0221
16.0235
16.0314
16.0491
16.0561
16.0596
16.0625
16.0718
16.0776
16.0884
16.1056
16.1261
16.1679
16.2314
16.2892
16.3422
16.3823
16.4566
16.5188
16.5297
16.5717
16.6678
16.5913
16.5756
16.6008
16.4491
16.4466
16.6775
18.0037
21.7105
22.7398
23.9639
23.63
21.4683
22.6871
31.7922
15.4999
15.5825
15.724
15.7321
15.8282
15.8378
15.888
15.9055
15.924
15.9692
15.9806
16.0007
16.0137
16.0119
16.0306
16.0404
16.0535
16.0588
16.0528
16.0741
16.0708
16.0854
16.1014
16.1241
16.1693
16.229
16.2922
16.3362
16.3884
16.46
16.5257
16.574
16.5995
16.7103
16.6566
16.6738
16.5988
16.5393
16.5189
16.959
18.4284
21.8391
24.5195
23.4051
23.849
22.9078
23.9094
36.4779
15.5021
15.5672
15.6954
15.767
15.7878
15.8357
15.9026
15.9048
15.9233
15.9759
15.9799
15.9849
16.014
16.0077
16.0212
16.0361
16.0486
16.0609
16.0506
16.0684
16.0703
16.085
16.1014
16.1237
16.1628
16.2248
16.2923
16.3429
16.3885
16.4798
16.5483
16.6084
16.7212
16.7826
16.794
16.7347
16.6511
16.5543
16.6534
17.3682
19.3488
22.2073
26.3686
24.5931
23.4573
23.5365
24.0379
41.9661
15.5667
15.5648
15.6494
15.7126
15.7815
15.8339
15.8637
15.9
15.918
15.9549
15.9923
15.9824
15.9998
16.0072
16.0247
16.0248
16.044
16.0553
16.0487
16.0687
16.0746
16.0845
16.1012
16.1273
16.1577
16.233
16.2931
16.346
16.3941
16.5024
16.5529
16.6487
16.7763
16.8385
16.9171
16.785
16.7097
16.502
16.8009
17.4688
20.602
24.132
24.9878
27.3508
25.9994
22.7708
25.6126
40.7236
15.5171
15.547
15.653
15.7509
15.7707
15.8378
15.8626
15.9073
15.9112
15.9535
15.9717
15.981
15.9984
16.0067
16.0152
16.0237
16.0405
16.0519
16.0461
16.0616
16.0676
16.0849
16.1016
16.1203
16.1588
16.2347
16.2969
16.3475
16.3977
16.5064
16.5943
16.7083
16.8407
16.8883
16.9742
16.8152
16.831
16.6486
16.8379
17.5994
20.9824
24.7554
27.3281
28.1078
26.4685
24.6935
27.7316
47.6132
15.5831
15.5472
15.6627
15.6947
15.7685
15.7984
15.8613
15.8848
15.9108
15.9442
15.9708
15.9865
15.9933
16.0024
16.015
16.0194
16.0422
16.044
16.0456
16.0617
16.0643
16.0871
16.1076
16.1172
16.1607
16.239
16.2979
16.3493
16.4091
16.5245
16.6126
16.7661
16.9939
17.0574
17.077
16.8187
16.972
16.7673
16.7449
17.6757
21.539
24.9098
28.7873
27.2032
27.0864
24.3955
25.9807
55.2075
15.4875
15.5417
15.6467
15.6905
15.7591
15.8276
15.8676
15.8885
15.9046
15.9385
15.9635
15.9608
16.0048
16.0041
16.0032
16.0274
16.0285
16.0445
16.053
16.0674
16.0635
16.0816
16.1034
16.1169
16.1648
16.2377
16.3049
16.358
16.426
16.5465
16.6765
16.8838
17.0419
17.1738
17.1571
17.0524
17.0224
16.9281
16.9924
17.3888
21.9705
23.6826
28.5402
30.0891
26.2828
26.6873
28.5234
57.2645
15.4622
15.5977
15.6164
15.6519
15.7905
15.7845
15.8431
15.8908
15.9049
15.9425
15.9613
15.9569
15.9875
15.9918
16.0086
16.013
16.0372
16.052
16.0442
16.0575
16.0557
16.073
16.1012
16.1217
16.1646
16.2389
16.3051
16.3628
16.4561
16.5725
16.715
16.977
17.0845
17.2409
17.2281
17.3621
17.0253
17.1091
17.1867
17.9558
21.6766
25.5772
30.3046
29.9936
28.809
27.2246
30.3783
59.1128
15.4431
15.5108
15.5799
15.6485
15.7659
15.7889
15.8664
15.8885
15.9004
15.9119
15.9631
15.9537
15.9842
15.9914
15.9943
16.0094
16.032
16.0383
16.0518
16.0553
16.0551
16.0797
16.0961
16.1153
16.1651
16.2484
16.3065
16.3684
16.4813
16.6414
16.7464
17.0099
17.2397
17.3742
17.5645
17.6372
17.3499
17.175
17.3179
18.4081
23.2063
28.0431
32.2683
33.4562
30.2127
25.7969
30.9448
57.7901
15.3815
15.532
15.5175
15.6295
15.7628
15.7646
15.8559
15.854
15.926
15.9297
15.9534
15.9494
15.9833
15.9894
15.9939
16.008
16.0287
16.0277
16.0411
16.0583
16.053
16.0726
16.0888
16.1158
16.1666
16.2501
16.3103
16.3908
16.5314
16.6574
16.7954
17.1212
17.2701
17.497
17.8068
17.7165
17.5999
17.1486
17.323
18.8825
22.7579
30.5023
32.1146
33.8262
30.7534
28.5289
34.8235
65.6777
15.3678
15.446
15.5168
15.6735
15.7247
15.7643
15.8549
15.8813
15.9123
15.902
15.9612
15.9492
15.9919
15.9821
15.9904
16.0062
16.0205
16.0278
16.0497
16.0494
16.0529
16.0743
16.0891
16.1222
16.1689
16.2508
16.3115
16.4163
16.5862
16.695
16.8186
17.1785
17.4309
17.753
17.9484
17.7393
17.6511
17.4787
17.1098
19.3782
23.7908
31.3066
34.7011
31.4552
31.6901
27.8312
40.6431
73.6043
15.3684
15.5052
15.4977
15.608
15.7309
15.7649
15.8487
15.8549
15.8982
15.8971
15.9474
15.9451
15.9692
15.9804
15.9848
15.9979
16.0212
16.0169
16.0412
16.0397
16.0525
16.0745
16.0898
16.1164
16.1781
16.2536
16.315
16.4638
16.6051
16.7553
16.855
17.3126
17.541
17.8724
18.2013
18.2369
17.6161
17.8374
17.3345
19.2118
23.3757
28.8258
33.3327
36.2134
31.6162
31.1615
42.2825
76.1381
15.2766
15.4599
15.5459
15.5965
15.6834
15.8086
15.8374
15.8562
15.877
15.8974
15.9532
15.9473
15.971
15.9945
15.9854
15.9956
16.0103
16.0171
16.0407
16.0376
16.0525
16.0668
16.0916
16.1176
16.1781
16.2605
16.3234
16.4775
16.6362
16.7844
16.8884
17.392
17.6963
18.1728
18.4356
18.7496
18.0053
17.9294
17.486
19.9123
24.9
31.7907
36.5899
35.0766
29.2947
31.1805
44.5828
90.4649
15.2681
15.44
15.476
15.623
15.7018
15.7896
15.8114
15.8653
15.8713
15.8939
15.9727
15.9436
15.9517
15.9737
15.9814
15.9907
16.0113
16.0295
16.0334
16.033
16.0524
16.0668
16.0963
16.1196
16.1797
16.2663
16.3428
16.5132
16.6668
16.8097
16.979
17.5179
18.1637
18.6667
18.677
18.8969
18.3603
17.9123
17.6818
19.6603
26.715
29.8288
40.4126
39.3988
32.5719
29.6279
41.4756
97.0376
15.237
15.3646
15.4713
15.576
15.6703
15.7736
15.8095
15.8752
15.8708
15.8835
15.9541
15.9412
15.9669
15.9695
15.9819
15.9899
16.0097
16.0247
16.0386
16.0341
16.0528
16.0673
16.0912
16.1295
16.1794
16.2647
16.3626
16.5278
16.7214
16.9496
17.0481
17.741
18.3489
18.8167
19.3359
19.1109
18.4205
18.5562
17.9111
20.6313
26.9386
33.7518
40.2459
39.3009
32.2825
33.293
50.9547
122.662
15.2338
15.3587
15.5261
15.5696
15.6666
15.8068
15.7709
15.8641
15.8759
15.8847
15.9352
15.9503
15.9463
15.9841
15.9818
15.9856
16.0067
16.0223
16.0305
16.0357
16.05
16.0739
16.0928
16.1306
16.1812
16.2732
16.3739
16.5425
16.7319
16.9615
17.1529
18.1552
18.4397
18.9417
19.6144
19.3954
18.6007
19.2389
18.1874
21.4451
27.1597
37.6092
38.7559
39.2556
31.9946
33.2432
47.8514
124.386
15.2067
15.3197
15.4263
15.6316
15.6712
15.7519
15.7926
15.8204
15.8797
15.8789
15.9308
15.9348
15.9432
15.9688
15.983
15.9857
16.0065
16.0105
16.0274
16.0436
16.0499
16.0669
16.1027
16.1305
16.1841
16.2759
16.3999
16.5716
16.7645
17.0485
17.4565
18.2813
18.4986
19.2017
19.8007
19.5721
18.7218
19.5041
18.5768
21.3167
24.5261
33.7631
37.9228
39.1731
31.3877
33.3852
56.8589
125.322
15.2852
15.3093
15.4027
15.5853
15.6699
15.71
15.7534
15.8201
15.8513
15.8702
15.9268
15.9503
15.9451
15.9714
15.9942
15.9856
16.002
16.0077
16.016
16.0443
16.0463
16.0773
16.0997
16.1367
16.1916
16.2823
16.4115
16.5841
16.8149
17.0848
17.6416
18.4649
18.7348
19.3774
20.0473
19.8271
18.7498
19.9413
19.1818
21.3395
24.8044
36.6611
42.0877
39.1129
30.7396
33.1046
57.9405
130.47
15.1871
15.2818
15.3981
15.5149
15.7263
15.7071
15.7457
15.8134
15.8542
15.8694
15.9161
15.9172
15.9418
15.9753
15.972
15.9873
16.0011
16.0088
16.0156
16.0443
16.0469
16.0719
16.0952
16.1324
16.1872
16.285
16.4241
16.6104
16.8554
17.158
17.7192
18.9111
18.6164
19.5921
20.1366
20.2142
19.6
20.337
20.0954
21.0983
23.9076
31.6085
36.4617
39.0448
26.6599
29.4556
58.712
131.08
15.1762
15.337
15.3831
15.4944
15.6936
15.7031
15.7506
15.8191
15.8638
15.8936
15.8982
15.9052
15.9358
15.9568
15.964
15.9868
15.9968
16.0046
16.0227
16.0451
16.0479
16.0718
16.0964
16.1404
16.1991
16.2952
16.4302
16.6261
16.9218
17.2084
17.7945
18.9958
18.6589
20.0107
20.5594
20.3129
20.5703
20.5976
21.0416
21.2586
23.6266
32.3003
40.8125
36.2034
27.1757
31.6881
59.2956
94.2322
15.1858
15.2629
15.3913
15.5545
15.7397
15.7035
15.7327
15.8516
15.8514
15.8624
15.9165
15.9022
15.936
15.9571
15.9656
15.9765
15.9962
16.0171
16.0161
16.0444
16.0494
16.0719
16.1073
16.1395
16.201
16.2962
16.4417
16.6834
16.9519
17.2814
17.9564
19.1981
18.7175
20.0728
20.5955
20.6482
21.3635
21.5797
21.31
21.2239
22.8245
30.7056
40.5957
40.3211
27.2249
34.6343
59.8184
100.855
15.2462
15.1816
15.3037
15.4755
15.6676
15.696
15.731
15.8047
15.8482
15.8647
15.9002
15.8989
15.9325
15.9518
15.96
15.9923
15.997
16.004
16.0285
16.0389
16.0522
16.0715
16.1087
16.1406
16.2067
16.2981
16.4531
16.7072
16.995
17.2906
18.0921
19.3598
18.9776
20.2201
21.0602
20.8241
21.4588
21.4518
21.7614
20.616
22.3502
29.4984
33.9622
40.0125
29.6222
33.3779
60.2063
96.5469
15.116
15.1756
15.3048
15.4642
15.6116
15.74
15.7601
15.7805
15.8283
15.8633
15.8845
15.8927
15.9319
15.9515
15.9612
15.9784
16.0044
16.0021
16.0195
16.0363
16.0515
16.0815
16.1118
16.1369
16.2082
16.3097
16.4808
16.7207
17.0527
17.3892
18.2893
19.5715
19.1944
20.3042
21.597
21.1529
21.5295
22.5352
22.0647
21.9029
22.0459
28.7216
34.8087
39.7358
27.6004
40.912
60.3933
65.0302
15.117
15.1532
15.2949
15.533
15.5694
15.6756
15.7174
15.788
15.7961
15.8716
15.8913
15.8928
15.9324
15.9476
15.9616
15.9803
15.9916
16.016
16.0319
16.0494
16.0536
16.0738
16.1117
16.1381
16.2134
16.3251
16.4993
16.7501
17.1077
17.4748
18.6138
19.5897
19.2462
20.4307
21.692
20.8849
21.7686
23.6383
22.45
22.0653
22.2914
27.2751
33.47
39.4516
30.9882
43.4959
60.8403
71.0193
15.085
15.1658
15.2562
15.4402
15.5431
15.6627
15.7049
15.7404
15.7991
15.8673
15.8813
15.9048
15.9295
15.9505
15.9623
15.9831
15.9943
16.0053
16.0249
16.0435
16.0661
16.0749
16.114
16.1477
16.2172
16.3383
16.5098
16.7671
17.1951
17.689
18.6866
19.587
19.4521
20.3641
21.8934
21.749
21.2926
24.0752
22.7373
21.9819
23.419
26.6704
32.6184
34.899
33.1559
47.4402
60.9293
63.4638
15.1796
15.0526
15.2604
15.4835
15.5499
15.6502
15.6526
15.7359
15.836
15.8449
15.8961
15.89
15.9234
15.9651
15.9821
15.9954
15.9906
16.0037
16.0313
16.035
16.0604
16.078
16.1093
16.1442
16.2233
16.3476
16.5084
16.7781
17.2313
17.8245
18.838
19.588
19.545
20.9492
22.0762
22.2235
22.1177
24.1367
24.5073
22.9878
23.5339
26.1214
32.0052
36.5992
38.4141
50.5092
60.7205
61.2999
15.0673
15.0536
15.2424
15.4134
15.4532
15.6332
15.6936
15.7145
15.811
15.8431
15.8865
15.875
15.9222
15.9411
15.9739
15.9957
15.9914
16.0053
16.0394
16.0348
16.0664
16.0868
16.1083
16.1459
16.2298
16.3566
16.5278
16.8017
17.2663
17.8276
18.8519
19.3751
19.6456
21.3209
21.6538
22.4735
22.4651
25.2172
24.3828
23.1884
22.1877
25.9607
32.5845
38.6797
43.7786
53.7278
60.4941
54.4655
15.0567
15.0958
15.2204
15.3996
15.4582
15.6446
15.6454
15.7031
15.7825
15.8152
15.8638
15.8687
15.9222
15.9425
15.9927
15.9954
15.9921
16.0081
16.0339
16.036
16.0584
16.0793
16.109
16.1512
16.2358
16.3628
16.5315
16.8099
17.335
17.9007
18.856
19.3026
20.0087
21.5119
21.9174
22.6843
21.927
25.4144
25.7662
23.7327
23.6239
25.0555
28.8914
37.7974
44.5889
60.6439
50.2977
51.7974
14.9349
15.0646
15.2255
15.3084
15.4463
15.5541
15.643
15.6785
15.7957
15.8227
15.8786
15.8705
15.9378
15.9437
15.9747
15.9912
16.0055
16.0045
16.0234
16.0365
16.0677
16.0905
16.1161
16.1574
16.2404
16.3636
16.5332
16.8106
17.369
18.0714
18.9943
19.234
19.685
21.4604
22.2538
23.0859
23.0125
25.4777
25.9159
24.2065
23.7913
25.0643
28.1821
31.8082
44.6941
63.1981
53.4907
45.3973
14.9383
14.9539
15.2896
15.3083
15.4385
15.5905
15.6518
15.6753
15.7614
15.8095
15.853
15.8733
15.9187
15.9484
15.9566
15.9799
15.9921
16.0042
16.0239
16.0382
16.0583
16.087
16.111
16.1582
16.2383
16.3671
16.5366
16.8404
17.4223
18.0876
18.9734
19.2414
19.732
21.4259
22.3145
22.5248
22.9475
26.0162
25.6173
24.0063
23.6959
23.877
26.2329
32.5193
46.0112
58.261
54.3685
47.7773
14.9107
14.9385
15.1479
15.3851
15.4518
15.5291
15.6645
15.6592
15.768
15.8314
15.8555
15.8801
15.9162
15.9525
15.953
15.9795
15.9943
16.0029
16.0211
16.0404
16.0572
16.0815
16.1186
16.1591
16.2392
16.3556
16.5351
16.8456
17.5062
18.0657
18.9598
19.2985
19.9831
21.3553
22.3014
23.3537
24.0519
26.1794
26.563
26.7049
23.9649
24.0914
25.7791
30.6388
44.6882
70.0317
60.4012
46.9534
14.9913
15.0435
15.1355
15.2947
15.5118
15.5265
15.6844
15.6616
15.7949
15.7839
15.8618
15.8994
15.8938
15.9395
15.9525
15.9802
15.9959
16.0183
16.0215
16.044
16.0693
16.0846
16.1125
16.1601
16.2402
16.3584
16.5385
16.8632
17.493
18.1026
18.9987
19.2154
20.0159
21.3662
22.2411
23.7642
23.4149
26.5175
26.6427
28.1953
24.1748
25.0211
25.6793
30.998
44.3531
66.4508
52.0425
45.1842
14.8766
14.8829
15.1351
15.2744
15.4349
15.5586
15.6567
15.6486
15.749
15.7781
15.8478
15.8827
15.8959
15.9354
15.9578
15.9809
15.9905
16.0096
16.022
16.0431
16.0653
16.0819
16.1136
16.1613
16.2416
16.3533
16.5301
16.858
17.5283
18.138
18.8448
19.3534
20.5406
21.1865
21.6398
23.685
24.2919
25.6626
26.8261
28.5689
23.2501
27.2396
26.4078
33.0826
42.933
63.4512
57.4681
45.2086
14.8475
14.8421
15.0978
15.2746
15.3642
15.494
15.6323
15.6413
15.776
15.7819
15.8658
15.8582
15.9229
15.9539
15.9603
15.9839
15.9933
16.0058
16.0229
16.042
16.0617
16.091
16.1175
16.1712
16.2441
16.3646
16.5293
16.8126
17.5233
18.0727
18.9593
19.3086
20.4779
20.9101
22.3242
23.5137
24.5331
26.5075
26.3237
27.8146
25.6071
28.0985
28.6405
33.3433
41.45
53.3258
43.8784
37.4865
14.722
14.8443
15.0935
15.3233
15.4554
15.4772
15.5833
15.6432
15.7566
15.7744
15.8507
15.8519
15.9074
15.9328
15.9432
15.9788
15.9889
16.0047
16.0242
16.0448
16.0695
16.0853
16.122
16.1665
16.2447
16.3696
16.5253
16.8088
17.4775
18.0198
18.9626
19.4832
20.5117
21.3771
22.6092
23.4451
24.7321
25.3491
26.3487
28.1242
27.5742
28.8008
27.715
33.392
35.5704
50.4261
43.6343
39.36
14.7253
14.8223
15.1571
15.2437
15.4261
15.3936
15.5953
15.6326
15.737
15.778
15.8406
15.8541
15.8857
15.9352
15.9458
15.9782
15.9884
16.0021
16.0252
16.0365
16.0591
16.0931
16.1176
16.1679
16.2495
16.3721
16.5272
16.7992
17.4057
17.95
18.7921
19.4487
20.2403
21.2826
22.6472
23.2533
23.8882
25.6237
26.3505
26.8697
30.0077
28.2278
31.6897
31.7782
33.6421
51.5672
39.9927
42.1216
14.7047
14.751
14.9903
15.2198
15.4036
15.3884
15.5216
15.6653
15.7472
15.8038
15.818
15.8476
15.8803
15.9123
15.9382
15.9858
15.9934
16.0027
16.0384
16.0366
16.06
16.0842
16.1182
16.1701
16.2496
16.3698
16.5464
16.8086
17.2657
17.9543
18.7931
19.4667
20.2466
21.5006
22.6544
23.187
24.6643
25.8167
25.9265
28.411
31.3948
31.6788
32.4256
34.0763
32.4216
49.132
42.5042
43.6782
14.7575
14.8335
15.0286
15.1325
15.4751
15.3608
15.5271
15.5868
15.7076
15.7497
15.7978
15.8363
15.8824
15.9319
15.9374
15.9631
15.9815
16.0019
16.0279
16.0364
16.0583
16.083
16.1271
16.1777
16.253
16.3728
16.5454
16.8101
17.2677
17.9616
18.7688
19.4454
20.3312
21.0406
21.9778
23.4949
24.9225
25.7846
27.6132
28.4695
30.5574
33.7655
30.8137
33.1923
33.0887
40.6036
41.8867
43.1963
14.6602
14.6719
14.8796
15.1796
15.3857
15.3521
15.5305
15.5801
15.7046
15.7809
15.7633
15.8626
15.878
15.906
15.9307
15.9657
15.9839
16.002
16.0366
16.0373
16.0588
16.0835
16.1231
16.1713
16.2581
16.3714
16.5338
16.8467
17.2695
17.918
18.7444
19.5334
20.3299
21.1637
22.0701
23.3681
24.6614
26.2534
27.2931
28.4957
30.7666
33.1409
34.734
29.3484
35.8364
44.2064
41.14
43.7494
14.649
14.631
14.8715
15.1283
15.2937
15.4112
15.5436
15.5706
15.6494
15.7231
15.7491
15.827
15.8804
15.9006
15.9338
15.9636
15.9954
16.002
16.027
16.0395
16.0682
16.084
16.1212
16.165
16.2478
16.346
16.5514
16.896
17.3139
17.8836
18.6246
19.2311
20.2183
21.2021
22.1307
23.3414
24.5229
25.2047
25.7299
28.8048
30.8801
33.0521
36.0227
31.6793
36.1368
43.8745
40.9945
43.2438
14.496
14.6213
14.8057
15.0185
15.327
15.3045
15.5976
15.6124
15.6924
15.7116
15.7464
15.8219
15.9014
15.9237
15.9341
15.97
15.9741
16.0157
16.0246
16.042
16.0612
16.092
16.1167
16.1652
16.2323
16.336
16.552
16.8761
17.3187
17.8111
18.5708
19.2443
20.141
20.9377
21.9637
23.2186
23.6825
25.2753
26.483
28.7286
30.889
32.9585
33.1061
33.7265
36.3114
43.2529
36.6125
38.0837
14.4814
14.7311
14.7824
15.0188
15.3025
15.3082
15.5114
15.5607
15.6284
15.7098
15.7411
15.8237
15.865
15.8994
15.922
15.9829
15.9884
16.0044
16.0121
16.0332
16.0539
16.0832
16.1243
16.1667
16.237
16.3362
16.5179
16.8434
17.25
17.6974
18.4631
19.2259
19.9775
20.8423
21.9595
23.1603
23.5229
24.8768
26.0005
28.9983
30.3042
32.0084
33.6492
33.7969
33.8113
42.6894
39.8528
40.8671
14.4187
14.4993
14.7218
14.9853
15.2488
15.291
15.4857
15.4945
15.6177
15.7005
15.7382
15.8116
15.865
15.8972
15.9445
15.9713
15.9723
16.0141
16.0246
16.0464
16.0547
16.0817
16.1183
16.1639
16.2299
16.333
16.4967
16.7688
17.2461
17.6954
18.4453
18.9684
19.9824
20.6351
21.8682
22.8121
23.5698
24.1036
26.472
28.7107
30.4806
32.2991
33.1267
31.8598
39.4669
41.2886
40.0259
41.3218
14.4107
14.4696
14.6897
15.1095
15.2135
15.2544
15.4894
15.4802
15.6065
15.7196
15.7256
15.8086
15.8827
15.9044
15.9284
15.9496
15.9768
15.9969
16.0132
16.0416
16.0549