/*--------------------------------*- C++ -*----------------------------------*\
  =========                 |
  \\      /  F ield         | OpenFOAM: The Open Source CFD Toolbox
   \\    /   O peration     | Website:  https://openfoam.org
    \\  /    A nd           | Version:  10
     \\/     M anipulation  |
\*---------------------------------------------------------------------------*/
FoamFile
{
    format      ascii;
    class       volScalarField;
    location    "5";
    object      p;
}
// * * * * * * * * * * * * * * * * * * * * * * * * * * * * * * * * * * * * * //

dimensions      [0 2 -2 0 0 0 0];

internalField   nonuniform List<scalar> 
38016
(
101329
101327
101327
101326
101326
101325
101325
101323
101322
101320
101317
101313
101307
101298
101288
101274
101258
101238
101214
101184
101147
101101
101043
100972
100884
100791
100711
100643
100590
100551
100523
100505
100494
100489
100489
100492
100498
100506
100516
100529
100543
100559
100577
100597
100618
100641
100671
100706
101329
101327
101327
101326
101326
101325
101325
101323
101322
101320
101317
101312
101306
101298
101287
101274
101257
101237
101212
101182
101145
101098
101039
100967
100877
100782
100699
100629
100575
100534
100505
100485
100473
100467
100467
100468
100474
100481
100491
100503
100518
100534
100552
100573
100595
100619
100649
100685
101329
101327
101327
101326
101326
101325
101324
101323
101322
101320
101317
101312
101306
101298
101287
101273
101256
101236
101211
101180
101142
101095
101035
100961
100870
100773
100688
100616
100559
100517
100486
100465
100452
100446
100444
100445
100450
100457
100467
100480
100494
100511
100531
100552
100575
100601
100632
100668
101329
101327
101327
101326
101326
101325
101324
101323
101322
101320
101317
101312
101306
101298
101287
101273
101255
101235
101210
101178
101140
101092
101031
100956
100863
100764
100677
100602
100544
100500
100468
100446
100432
100424
100423
100423
100427
100434
100444
100457
100472
100490
100510
100533
100557
100584
100615
100652
101329
101327
101327
101326
101326
101325
101324
101323
101322
101320
101316
101312
101306
101297
101286
101272
101255
101234
101208
101177
101138
101089
101027
100951
100857
100755
100666
100589
100529
100483
100450
100427
100412
100403
100401
100400
100405
100412
100422
100435
100451
100469
100490
100513
100538
100566
100597
100632
101329
101327
101327
101326
101326
101325
101324
101323
101322
101320
101316
101312
101306
101297
101286
101271
101254
101233
101207
101175
101135
101086
101023
100946
100850
100746
100654
100576
100514
100466
100432
100407
100392
100382
100379
100379
100382
100390
100400
100413
100430
100449
100470
100493
100518
100545
100574
100607
101329
101327
101327
101326
101326
101325
101324
101323
101322
101319
101316
101312
101305
101297
101285
101271
101253
101232
101206
101173
101133
101083
101019
100940
100843
100738
100644
100563
100499
100450
100414
100389
100372
100361
100358
100357
100361
100368
100378
100392
100409
100428
100449
100472
100496
100520
100547
100577
101329
101327
101327
101326
101326
101325
101324
101323
101322
101319
101316
101312
101305
101296
101285
101270
101252
101231
101204
101171
101131
101080
101015
100935
100836
100729
100633
100550
100484
100434
100396
100370
100352
100341
100337
100336
100339
100346
100357
100370
100387
100406
100426
100448
100470
100493
100516
100542
101330
101327
101327
101326
101326
101325
101324
101323
101322
101319
101316
101311
101305
101296
101284
101270
101251
101230
101203
101170
101128
101077
101012
100930
100829
100720
100622
100537
100470
100417
100379
100351
100332
100321
100316
100314
100318
100325
100335
100349
100365
100383
100402
100422
100442
100461
100482
100503
101330
101327
101327
101326
101326
101325
101324
101323
101322
101319
101316
101311
101305
101296
101284
101269
101251
101229
101202
101168
101126
101074
101008
100925
100823
100711
100611
100525
100455
100401
100362
100333
100313
100301
100295
100293
100296
100303
100313
100326
100341
100358
100375
100393
100411
100427
100444
100461
101330
101327
101327
101326
101326
101325
101324
101323
101322
101319
101316
101311
101304
101295
101284
101268
101250
101228
101200
101166
101124
101071
101004
100920
100816
100703
100600
100512
100441
100385
100344
100314
100294
100281
100274
100272
100275
100281
100291
100303
100317
100332
100347
100363
100377
100391
100405
100418
101330
101327
101327
101326
101326
101325
101324
101323
101322
101319
101316
101311
101304
101295
101283
101268
101249
101227
101199
101164
101122
101068
101000
100915
100809
100694
100590
100499
100426
100370
100327
100296
100275
100261
100254
100251
100254
100260
100268
100279
100292
100305
100318
100331
100343
100354
100364
100375
101330
101327
101327
101326
101326
101325
101324
101323
101321
101319
101316
101311
101304
101295
101283
101267
101248
101226
101198
101163
101119
101065
100996
100910
100803
100686
100579
100487
100412
100354
100310
100278
100256
100241
100233
100230
100232
100237
100245
100255
100265
100276
100287
100297
100307
100316
100324
100331
101330
101327
101327
101326
101326
101325
101324
101323
101321
101319
101316
101311
101304
101295
101282
101267
101248
101225
101196
101161
101117
101062
100992
100905
100796
100677
100569
100475
100398
100338
100293
100260
100237
100221
100213
100209
100210
100215
100221
100229
100238
100247
100255
100263
100271
100278
100284
100289
101330
101327
101327
101326
101326
101325
101324
101323
101321
101319
101316
101311
101304
101294
101282
101266
101247
101224
101195
101159
101115
101060
100989
100900
100790
100669
100558
100462
100384
100323
100276
100242
100218
100202
100192
100188
100188
100192
100197
100203
100210
100217
100223
100230
100235
100240
100245
100249
101330
101327
101327
101326
101326
101325
101324
101323
101321
101319
101315
101310
101304
101294
101282
101266
101246
101223
101194
101157
101113
101057
100985
100895
100783
100660
100548
100450
100370
100308
100260
100224
100199
100182
100172
100167
100166
100168
100172
100176
100181
100186
100191
100196
100200
100204
100207
100210
101330
101327
101327
101326
101326
101325
101324
101323
101321
101319
101315
101310
101303
101294
101281
101265
101245
101222
101192
101156
101110
101054
100981
100890
100777
100652
100538
100438
100357
100292
100243
100207
100180
100163
100152
100146
100144
100144
100146
100149
100152
100156
100159
100163
100166
100169
100171
100173
101330
101327
101327
101326
101326
101325
101324
101323
101321
101319
101315
101310
101303
101293
101281
101265
101245
101221
101191
101154
101108
101051
100977
100885
100770
100644
100527
100426
100343
100277
100227
100189
100162
100143
100131
100124
100121
100120
100121
100122
100124
100126
100128
100130
100133
100134
100136
100137
101330
101327
101327
101326
101326
101325
101324
101323
101321
101319
101315
101310
101303
101293
101280
101264
101244
101220
101190
101152
101106
101048
100974
100881
100764
100636
100517
100414
100329
100262
100210
100172
100143
100124
100111
100102
100098
100096
100095
100095
100095
100096
100097
100099
100100
100101
100102
100103
101330
101327
101327
101326
101326
101325
101324
101323
101321
101319
101315
101310
101303
101293
101280
101263
101243
101219
101188
101151
101104
101045
100970
100876
100757
100627
100507
100402
100316
100247
100194
100154
100125
100104
100090
100081
100075
100071
100069
100068
100067
100067
100067
100068
100069
100070
100070
100070
101330
101327
101327
101326
101326
101325
101324
101323
101321
101319
101315
101310
101303
101293
101280
101263
101242
101218
101187
101149
101102
101042
100966
100871
100751
100619
100497
100391
100302
100232
100178
100137
100107
100085
100069
100059
100052
100047
100043
100041
100039
100038
100038
100038
100039
100039
100039
100039
101330
101327
101327
101326
101326
101325
101324
101323
101321
101319
101315
101310
101302
101292
101279
101262
101241
101217
101186
101147
101099
101039
100963
100866
100745
100611
100487
100379
100289
100218
100162
100120
100088
100065
100049
100037
100029
100023
100018
100015
100012
100010
100010
100010
100010
100010
100009
100008
101330
101327
101327
101326
101326
101325
101324
101323
101321
101318
101315
101310
101302
101292
101279
101262
101241
101216
101184
101145
101097
101037
100959
100862
100739
100603
100477
100367
100276
100203
100146
100103
100070
100046
100028
100015
100006
99998.7
99993.3
99988.9
99985.6
99983.3
99982.2
99981.9
99981.8
99981.3
99980.3
99979.3
101330
101327
101327
101326
101326
101325
101324
101323
101321
101318
101315
101309
101302
101292
101278
101261
101240
101215
101183
101144
101095
101034
100955
100857
100732
100595
100468
100356
100263
100188
100130
100086
100052
100027
100008
99993.8
99983.2
99975.2
99968.9
99963.8
99959.9
99957.2
99955.6
99955
99954.7
99953.9
99952.6
99951.3
101330
101327
101327
101326
101326
101325
101324
101323
101321
101318
101315
101309
101302
101292
101278
101261
101239
101213
101182
101142
101093
101031
100952
100852
100726
100587
100458
100344
100250
100174
100114
100069
100034
100007
99987.4
99972.4
99960.9
99952
99945
99939.3
99934.8
99931.7
99929.9
99929.1
99928.5
99927.5
99925.9
99924.4
101330
101327
101327
101326
101326
101325
101324
101323
101321
101318
101315
101309
101302
101291
101278
101260
101238
101212
101180
101140
101090
101028
100948
100847
100720
100579
100448
100333
100237
100160
100099
100052
100016
99988.1
99967.1
99951.1
99938.7
99929.1
99921.4
99915.2
99910.4
99907.1
99905.1
99904.1
99903.3
99902.1
99900.4
99898.8
101330
101327
101327
101326
101326
101325
101324
101323
101321
101318
101314
101309
101301
101291
101277
101259
101238
101211
101179
101138
101088
101025
100944
100843
100714
100571
100439
100322
100224
100145
100083
100035
99997.5
99968.9
99946.9
99929.9
99916.8
99906.5
99898.3
99891.7
99886.7
99883.1
99881
99879.9
99879.1
99877.8
99876
99874.3
101330
101327
101327
101326
101326
101325
101324
101323
101321
101318
101314
101309
101301
101291
101277
101259
101237
101210
101178
101137
101086
101022
100940
100838
100708
100564
100429
100311
100212
100131
100068
100018
99979.5
99949.9
99926.8
99909
99895
99884.2
99875.6
99868.7
99863.5
99859.9
99857.7
99856.7
99855.8
99854.4
99852.7
99851
101330
101327
101327
101326
101326
101325
101324
101323
101321
101318
101314
101309
101301
101291
101276
101258
101236
101209
101176
101135
101083
101019
100937
100833
100702
100556
100420
100300
100199
100117
100052
100001
99961.6
99930.9
99906.9
99888.2
99873.6
99862.2
99853.2
99846.1
99840.8
99837.2
99835.1
99834.1
99833.2
99831.8
99830.2
99828.5
101330
101327
101327
101326
101326
101325
101324
101323
101321
101318
101314
101309
101301
101290
101276
101258
101235
101208
101175
101133
101081
101016
100933
100828
100695
100548
100410
100289
100186
100103
100037
99984.5
99943.8
99912.1
99887.2
99867.8
99852.5
99840.6
99831.3
99823.9
99818.5
99814.9
99812.8
99811.9
99811.1
99809.8
99808.3
99806.7
101330
101327
101327
101326
101326
101325
101324
101323
101321
101318
101314
101309
101301
101290
101276
101257
101234
101207
101173
101131
101079
101013
100929
100824
100689
100540
100401
100278
100174
100089
100021
99967.8
99926.1
99893.4
99867.7
99847.6
99831.9
99819.6
99809.9
99802.3
99796.6
99792.9
99790.8
99789.8
99789
99787.8
99786.4
99785.1
101330
101327
101327
101326
101326
101325
101324
101323
101321
101318
101314
101308
101301
101290
101275
101257
101234
101206
101172
101129
101076
101010
100925
100819
100683
100533
100392
100267
100161
100075
100006
99951.2
99908.4
99874.8
99848.4
99827.8
99811.6
99799
99789
99781.2
99775.4
99771.5
99769.3
99768.1
99767.1
99765.9
99764.9
99764
101330
101327
101327
101326
101326
101325
101324
101323
101321
101318
101314
101308
101300
101290
101275
101256
101233
101205
101170
101127
101074
101007
100921
100814
100677
100525
100383
100256
100149
100061
99990.5
99934.7
99890.8
99856.3
99829.3
99808.2
99791.6
99778.7
99768.6
99760.6
99754.7
99750.8
99748.5
99747.4
99746.3
99745.1
99744.3
99743.5
101330
101327
101327
101326
101326
101325
101324
101323
101321
101318
101314
101308
101300
101289
101275
101256
101232
101204
101169
101125
101071
101003
100917
100809
100671
100518
100374
100246
100137
100047
99975.3
99918.2
99873.2
99838
99810.3
99788.7
99771.8
99758.6
99748.3
99740.2
99734.3
99730.5
99728.3
99727.3
99726.4
99725.4
99724.6
99723.9
101330
101327
101327
101326
101326
101325
101324
101323
101321
101318
101314
101308
101300
101289
101274
101255
101231
101202
101167
101123
101069
101000
100913
100804
100665
100510
100365
100235
100125
100033
99960
99901.7
99855.7
99819.6
99791.4
99769.3
99752
99738.6
99728.1
99720
99714.2
99710.5
99708.6
99707.8
99707
99706.1
99705.4
99704.7
101331
101327
101327
101326
101326
101325
101324
101323
101321
101318
101314
101308
101300
101289
101274
101254
101230
101201
101165
101121
101066
100997
100909
100799
100659
100503
100356
100225
100112
100020
99944.8
99885.3
99838.3
99801.4
99772.5
99750
99732.4
99718.8
99708.1
99700
99694.3
99690.8
99689.1
99688.5
99687.9
99687.1
99686.6
99686.2
101331
101327
101327
101326
101326
101325
101324
101323
101321
101318
101314
101308
101300
101289
101273
101254
101230
101200
101164
101119
101063
100993
100905
100794
100652
100495
100347
100214
100100
100006
99929.7
99868.8
99820.8
99783.1
99753.7
99730.8
99713
99699.2
99688.4
99680.3
99674.7
99671.3
99669.7
99669.1
99668.6
99668
99667.5
99667.1
101331
101327
101327
101326
101326
101325
101324
101323
101321
101318
101314
101308
101300
101288
101273
101253
101229
101199
101162
101117
101061
100990
100901
100789
100646
100488
100338
100204
100089
99992.5
99914.5
99852.4
99803.3
99764.9
99735
99711.7
99693.7
99679.8
99668.9
99660.8
99655.1
99651.8
99650.3
99649.9
99649.5
99648.9
99648.6
99648.4
101331
101327
101327
101326
101326
101325
101324
101323
101321
101318
101314
101308
101299
101288
101273
101253
101228
101197
101160
101115
101058
100986
100896
100783
100640
100481
100330
100194
100077
99979
99899.5
99836
99785.8
99746.6
99716.2
99692.6
99674.5
99660.4
99649.4
99641.2
99635.7
99632.4
99631
99630.7
99630.3
99629.8
99629.5
99629.4
101331
101327
101327
101326
101326
101325
101324
101322
101320
101318
101313
101308
101299
101288
101273
101252
101227
101196
101159
101113
101055
100982
100892
100778
100634
100473
100321
100184
100065
99965.6
99884.4
99819.5
99768.3
99728.3
99697.3
99673.4
99655
99640.8
99629.9
99621.7
99616.2
99613.1
99611.9
99611.7
99611.5
99611.1
99610.9
99610.8
101331
101327
101327
101326
101326
101325
101324
101322
101320
101318
101313
101308
101299
101288
101272
101252
101226
101195
101157
101110
101052
100979
100887
100773
100628
100466
100313
100174
100054
99952.3
99869.4
99803.1
99750.7
99709.8
99678.2
99654
99635.3
99621
99610
99601.8
99596.5
99593.6
99592.5
99592.6
99592.4
99592.1
99592
99592
101331
101327
101327
101326
101326
101325
101324
101322
101320
101317
101313
101307
101299
101288
101272
101251
101226
101194
101155
101108
101049
100975
100883
100767
100621
100459
100305
100165
100042
99939.1
99854.5
99786.6
99733.1
99691.3
99659
99634.3
99615.4
99600.9
99589.8
99581.7
99576.4
99573.7
99572.9
99573.2
99573.2
99573.1
99573.1
99573.4
101331
101327
101327
101326
101326
101325
101324
101322
101320
101317
101313
101307
101299
101287
101272
101251
101225
101192
101154
101106
101046
100971
100878
100762
100615
100452
100297
100156
100031
99926.1
99839.7
99770.2
99715.3
99672.5
99639.6
99614.5
99595.4
99580.7
99569.4
99561.2
99555.9
99553.2
99552.4
99552.8
99552.9
99552.9
99553
99553.4
101331
101327
101327
101326
101326
101325
101324
101322
101320
101317
101313
101307
101299
101287
101271
101251
101224
101191
101152
101104
101043
100967
100873
100756
100609
100445
100289
100146
100020
99913.4
99825
99753.8
99697.5
99653.6
99620
99594.4
99575
99560.2
99548.8
99540.5
99535.2
99532.5
99531.8
99532.3
99532.4
99532.4
99532.5
99533
101331
101327
101327
101326
101326
101325
101324
101322
101320
101317
101313
101307
101299
101287
101271
101250
101223
101190
101150
101101
101040
100963
100868
100751
100603
100439
100282
100138
100010
99900.8
99810.4
99737.4
99679.5
99634.5
99600
99573.9
99554.2
99539.2
99527.7
99519.4
99514
99511.3
99510.6
99511.1
99511.2
99511.1
99511.2
99511.7
101331
101327
101327
101326
101326
101325
101324
101322
101320
101317
101313
101307
101299
101287
101271
101250
101223
101189
101148
101099
101037
100959
100864
100745
100597
100432
100275
100129
99999.8
99888.6
99796
99721
99661.5
99615.1
99579.6
99552.8
99532.8
99517.6
99506
99497.7
99492.3
99489.7
99489.1
99489.7
99489.8
99489.7
99489.8
99490.3
101331
101327
101327
101326
101326
101325
101324
101322
101320
101317
101313
101307
101299
101287
101271
101249
101222
101188
101147
101096
101033
100955
100859
100740
100591
100426
100268
100121
99990
99876.6
99781.9
99704.7
99643.4
99595.5
99558.8
99531.2
99510.6
99495.1
99483.4
99475
99469.7
99467.1
99466.6
99467.3
99467.4
99467.2
99467.2
99467.7
101331
101328
101327
101326
101326
101325
101324
101322
101320
101317
101313
101307
101298
101287
101270
101249
101221
101187
101145
101094
101030
100951
100854
100734
100585
100420
100261
100114
99980.6
99865.1
99768
99688.6
99625.2
99575.7
99537.7
99509
99487.7
99471.7
99459.7
99451.2
99445.8
99443.2
99442.9
99443.8
99444
99443.9
99444.1
99444.8
101331
101328
101327
101326
101326
101325
101324
101322
101320
101317
101313
101307
101298
101287
101270
101249
101221
101186
101143
101092
101027
100947
100849
100729
100579
100414
100255
100106
99971.7
99854
99754.4
99672.6
99607.1
99555.7
99516.2
99486.4
99464.3
99447.8
99435.4
99426.5
99420.7
99417.9
99417.4
99418
99418.2
99418
99418.1
99418.9
101331
101328
101327
101326
101326
101325
101324
101322
101320
101317
101313
101307
101298
101286
101270
101248
101220
101185
101142
101089
101024
100943
100844
100723
100574
100409
100250
100100
99963.4
99843.5
99741.3
99656.9
99589
99535.6
99494.5
99463.5
99440.5
99423.5
99410.7
99401.5
99395.5
99392.4
99391.7
99392.2
99392
99391.6
99391.6
99392.3
101331
101328
101327
101326
101326
101325
101324
101322
101320
101317
101313
101307
101298
101286
101270
101248
101219
101184
101140
101087
101021
100939
100840
100718
100569
100404
100245
100094
99955.7
99833.5
99728.7
99641.5
99571.1
99515.5
99472.5
99440.1
99416.1
99398.4
99385.2
99375.6
99369.3
99366
99365.1
99365.4
99365
99364.5
99364.4
99365.1
101331
101328
101327
101326
101326
101325
101324
101322
101320
101317
101313
101307
101298
101286
101270
101248
101219
101183
101139
101085
101018
100935
100835
100713
100564
100400
100240
100088
99948.7
99824.1
99716.6
99626.6
99553.3
99495.3
99450.3
99416.2
99391
99372.4
99358.7
99348.7
99342
99338.2
99337
99336.9
99336.2
99335.4
99335.2
99335.9
101331
101328
101327
101326
101326
101325
101324
101322
101320
101317
101313
101307
101298
101286
101270
101247
101218
101182
101137
101082
101015
100931
100831
100708
100560
100396
100236
100084
99942.5
99815.6
99705.1
99612.1
99535.9
99475.2
99427.9
99391.9
99365.3
99345.7
99331.4
99320.9
99313.9
99309.8
99308.2
99307.8
99306.8
99305.7
99305.5
99306.3
101331
101328
101327
101326
101326
101325
101324
101322
101320
101317
101313
101307
101298
101286
101270
101247
101218
101181
101136
101080
101012
100928
100826
100704
100556
100392
100233
100080
99937
99807.8
99694.5
99598.2
99518.9
99455.2
99405.4
99367.3
99339
99318.3
99303.1
99292.1
99284.5
99279.9
99277.7
99276.9
99275.3
99274
99273.8
99274.7
101331
101328
101327
101326
101326
101325
101324
101322
101320
101317
101313
101307
101298
101286
101269
101247
101217
101180
101134
101078
101009
100924
100822
100700
100552
100390
100230
100077
99932.5
99800.9
99684.7
99585.1
99502.4
99435.6
99383
99342.6
99312.3
99290.2
99274.1
99262.4
99254.3
99249.1
99246.5
99245.1
99243.1
99241.6
99241.6
99242.8
101331
101328
101327
101326
101326
101325
101324
101322
101320
101317
101313
101307
101298
101286
101269
101247
101217
101179
101133
101076
101006
100921
100819
100696
100549
100387
100228
100074
99928.9
99795.1
99675.8
99572.8
99486.6
99416.4
99360.7
99317.7
99285.3
99261.5
99244.2
99231.6
99222.8
99217
99213.6
99211.6
99209.2
99207.6
99207.8
99209.2
101331
101328
101327
101326
101326
101325
101324
101322
101320
101317
101313
101307
101298
101286
101269
101247
101217
101179
101132
101074
101003
100918
100815
100693
100547
100386
100227
100073
99926.4
99790.3
99668
99561.5
99471.6
99397.8
99338.9
99293
99258.2
99232.4
99213.6
99200.1
99190.5
99183.9
99179.7
99177.3
99174.6
99173.1
99173.6
99175.4
101331
101328
101327
101326
101326
101325
101324
101322
101320
101317
101313
101307
101298
101286
101269
101247
101216
101178
101131
101072
101001
100915
100812
100690
100545
100385
100227
100073
99924.9
99786.7
99661.4
99551.3
99457.5
99380
99317.5
99268.6
99231.1
99203.2
99182.8
99168.1
99157.6
99150
99144.8
99141.6
99138.6
99137
99137.8
99139.9
101331
101328
101327
101327
101326
101325
101324
101322
101320
101317
101313
101307
101298
101286
101269
101247
101216
101178
101130
101071
100999
100912
100810
100688
100544
100385
100228
100074
99924.6
99784.3
99656.1
99542.3
99444.6
99363.1
99296.9
99244.7
99204.4
99174.2
99152
99136
99124.7
99116.2
99109.8
99105.1
99101.2
99099.4
99100.5
99102.9
101331
101328
101327
101327
101326
101325
101324
101322
101320
101317
101313
101307
101298
101286
101269
101246
101216
101177
101129
101070
100997
100910
100808
100686
100543
100386
100230
100075
99925.5
99783.3
99652.1
99534.7
99432.9
99347.2
99277.1
99221.3
99178
99145.3
99121.1
99103.8
99091.3
99081.9
99074.3
99068
99062.7
99060.3
99061.3
99063.8
101331
101328
101327
101327
101326
101325
101324
101322
101320
101317
101313
101307
101298
101286
101269
101246
101216
101177
101128
101068
100996
100908
100806
100685
100543
100388
100233
100078
99927.7
99783.6
99649.6
99528.6
99422.6
99332.6
99258.3
99198.6
99152
99116.5
99090.1
99071.1
99057.6
99047.4
99038.8
99031
99024.3
99020.8
99021.1
99023
101331
101328
101327
101327
101326
101325
101324
101322
101320
101317
101313
101307
101298
101286
101269
101246
101216
101177
101128
101067
100994
100907
100805
100685
100544
100390
100236
100082
99931.1
99785.3
99648.6
99524
99413.9
99319.4
99240.6
99176.8
99126.5
99087.8
99059
99038.1
99023.2
99012.1
99002.7
98993.6
98985.6
98981.2
98980.6
98981.7
101331
101328
101327
101327
101326
101325
101324
101322
101320
101317
101313
101307
101298
101286
101269
101246
101216
101177
101127
101067
100993
100906
100804
100685
100546
100394
100241
100088
99935.8
99788.6
99649.3
99521.2
99406.8
99307.7
99224.3
99156
99101.6
99059.6
99027.9
99004.7
98988.2
98976.5
98966.6
98956.5
98947.5
98942.3
98940.7
98940.7
101331
101328
101327
101327
101326
101325
101324
101322
101320
101317
101313
101307
101298
101286
101269
101247
101216
101177
101127
101066
100993
100906
100804
100686
100549
100398
100247
100094
99941.9
99793.3
99651.6
99520.1
99401.5
99297.8
99209.5
99136.5
99077.8
99031.8
98996.9
98971.1
98953
98940.2
98929.7
98919
98909.3
98903.5
98901.2
98900.1
101331
101328
101327
101327
101326
101325
101324
101322
101320
101317
101313
101307
101298
101286
101270
101247
101216
101177
101127
101066
100992
100905
100804
100687
100552
100403
100253
100101
99949.3
99799.6
99655.7
99520.9
99398.3
99289.8
99196.5
99118.6
99055.2
99005
98966.3
98937.6
98917
98902.6
98891.4
98880.6
98870.7
98864.6
98861.5
98859.5
101331
101328
101327
101327
101326
101325
101324
101322
101320
101317
101313
101307
101298
101286
101270
101247
101216
101177
101127
101066
100993
100906
100805
100689
100556
100409
100261
100110
99958
99807.4
99661.6
99523.8
99397.1
99283.9
99185.6
99102.5
99034.2
98979.4
98936.6
98904.2
98880.4
98863.6
98851.4
98840.7
98831.5
98825.6
98821.9
98818.8
101331
101328
101327
101327
101326
101325
101324
101322
101320
101317
101313
101307
101298
101286
101270
101247
101217
101177
101127
101066
100993
100907
100807
100692
100561
100416
100270
100120
99968
99816.9
99669.3
99528.6
99398.1
99280.3
99176.9
99088.6
99015.1
98955.5
98908.3
98871.7
98844.3
98824.7
98811.1
98800.9
98793.1
98788.2
98784.5
98780.8
101331
101328
101327
101327
101326
101325
101324
101322
101320
101317
101313
101307
101298
101286
101270
101247
101217
101178
101128
101067
100994
100908
100809
100696
100566
100424
100279
100131
99979.4
99827.8
99678.8
99535.6
99401.4
99279
99170.5
99076.9
98998.2
98933.6
98881.8
98841
98809.7
98786.6
98770.6
98760.4
98754.2
98750.6
98746.7
98742.2
101331
101328
101327
101327
101326
101325
101324
101322
101320
101317
101313
101307
101298
101287
101270
101248
101217
101178
101129
101068
100995
100910
100812
100700
100573
100433
100290
100143
99992
99840.3
99690.2
99544.6
99406.9
99280.2
99166.6
99067.7
98983.6
98913.9
98857.3
98812.2
98777
98750.1
98731.4
98720.5
98715.5
98712.7
98708.3
98703
101331
101328
101327
101327
101326
101325
101324
101322
101320
101317
101313
101307
101299
101287
101270
101248
101218
101179
101129
101069
100996
100912
100815
100705
100580
100442
100301
100155
100006
99854.3
99703.2
99555.7
99414.8
99283.8
99165.3
99060.9
98971.3
98896.3
98834.8
98785.5
98746.5
98716.3
98694.5
98681.5
98675.7
98672.4
98666.8
98660.8
101331
101328
101327
101327
101326
101325
101324
101322
101320
101317
101313
101307
101299
101287
101271
101248
101219
101180
101131
101070
100998
100915
100819
100710
100587
100453
100313
100169
100021
99869.6
99718
99568.8
99425
99290
99166.6
99056.8
98961.5
98881
98814.5
98760.6
98717.9
98684.9
98660.5
98644.2
98634.5
98627.8
98620.7
98614.5
101331
101328
101327
101327
101326
101325
101324
101322
101320
101317
101313
101307
101299
101287
101271
101249
101219
101181
101132
101072
101001
100918
100824
100717
100596
100463
100327
100184
100037
99886.4
99734.5
99583.8
99437.5
99298.8
99170.6
99055.4
98954.5
98868.3
98796.4
98737.8
98690.8
98654.1
98626.4
98606.4
98592.3
98581.5
98571.9
98564.5
101331
101328
101327
101327
101326
101325
101324
101322
101320
101317
101313
101307
101299
101287
101271
101249
101220
101182
101133
101074
101003
100922
100829
100723
100605
100475
100340
100200
100054
99904.3
99752.5
99600.8
99452.2
99310.1
99177.4
99057
98950.4
98858.4
98780.9
98717
98665.2
98624.1
98592
98567.6
98549.2
98534.6
98522.2
98512.7
101331
101328
101327
101327
101326
101325
101324
101322
101320
101317
101313
101307
101299
101288
101272
101250
101221
101183
101135
101076
101006
100926
100834
100731
100614
100487
100355
100216
100072
99923.5
99772
99619.6
99469.1
99323.9
99187
99061.4
98949.1
98851.3
98768
98698.5
98641.5
98595.6
98559
98530.3
98508
98490
98475.3
98463.9
101331
101328
101327
101327
101326
101325
101324
101322
101320
101317
101313
101307
101299
101288
101272
101251
101222
101184
101137
101079
101010
100930
100840
100738
100625
100500
100370
100234
100091
99943.8
99792.8
99640.1
99488.1
99340.1
99199.3
99068.8
98950.9
98847
98757.6
98682.2
98619.7
98568.5
98527.2
98494.1
98467.7
98446.1
98428.4
98414.3
101331
101328
101327
101327
101326
101325
101324
101322
101320
101317
101313
101307
101299
101288
101273
101251
101223
101186
101139
101081
101013
100935
100846
100747
100635
100513
100386
100251
100111
99965.1
99815
99662.2
99509.1
99358.7
99214.2
99079
98955.5
98845.6
98749.8
98668.1
98599.6
98542.8
98496.3
98458.3
98427.3
98401.4
98380
98362.5
101331
101328
101327
101327
101326
101325
101324
101322
101320
101317
101313
101308
101300
101289
101273
101252
101224
101187
101141
101084
101017
100940
100853
100756
100647
100527
100402
100270
100131
99987.3
99838.3
99685.8
99531.9
99379.5
99231.8
99092.1
98963.2
98847.1
98744.8
98656.5
98581.5
98518.5
98466.1
98422.7
98386.7
98356.2
98330.7
98309.8
101331
101328
101327
101327
101326
101325
101324
101322
101320
101317
101313
101308
101300
101289
101274
101253
101225
101189
101143
101087
101022
100946
100861
100765
100659
100542
100419
100289
100153
100010
99862.7
99710.8
99556.5
99402.5
99251.8
99107.9
98973.7
98851.5
98742.6
98647.4
98565.6
98496
98437.2
98387.6
98345.8
98310.1
98279.8
98254.8
101331
101328
101327
101327
101326
101325
101324
101322
101320
101317
101313
101308
101300
101289
101274
101254
101226
101191
101146
101091
101026
100952
100868
100775
100671
100557
100436
100309
100175
100034
99888.1
99737
99582.7
99427.5
99274.3
99126.4
98987.1
98858.7
98743.2
98641
98552
98475.4
98409.8
98353.7
98305.5
98263.7
98227.8
98197.6
101331
101328
101327
101327
101326
101325
101324
101322
101320
101317
101314
101308
101300
101290
101275
101255
101228
101193
101149
101095
101031
100958
100876
100785
100683
100572
100454
100329
100197
100059
99914.3
99764.5
99610.4
99454.4
99299
99147.5
99003.2
98868.9
98746.6
98637.2
98540.9
98457
98384.3
98321.4
98266.7
98218.8
98177.1
98141.5
101331
101328
101327
101327
101326
101325
101324
101322
101320
101318
101314
101308
101301
101290
101276
101256
101229
101195
101151
101098
101036
100965
100885
100795
100696
100587
100472
100350
100220
100084
99941.3
99792.9
99639.5
99483
99325.8
99171.1
99022.2
98882
98752.9
98636.1
98532.2
98440.7
98360.6
98290.6
98229.3
98175.2
98127.9
98087.7
101331
101328
101327
101327
101326
101325
101324
101322
101320
101318
101314
101308
101301
101291
101276
101257
101231
101197
101154
101102
101042
100972
100893
100806
100710
100603
100491
100370
100243
100110
99969.1
99822.3
99669.9
99513.3
99354.8
99197.2
99043.9
98898
98762
98637.8
98526
98426.5
98338.5
98260.8
98192.1
98131
98077.2
98031
101331
101328
101327
101327
101326
101325
101324
101323
101320
101318
101314
101309
101301
101291
101277
101258
101232
101199
101157
101107
101047
100979
100902
100817
100723
100620
100509
100392
100267
100136
99997.4
99852.5
99701.3
99545
99385.6
99225.6
99068.3
98916.9
98774.2
98642.3
98522.3
98414.4
98318
98232
98155.2
98086.3
98024.9
97971.6
101331
101328
101327
101327
101326
101325
101324
101323
101321
101318
101314
101309
101302
101292
101278
101259
101234
101202
101161
101111
101053
100986
100912
100829
100737
100636
100528
100413
100291
100162
100026
99883.4
99733.8
99578.2
99418.3
99256.3
99095.4
98938.7
98789.4
98649.8
98521.4
98404.7
98299.4
98204.6
98119.2
98041.9
97972.5
97911.7
101331
101328
101327
101327
101326
101325
101324
101323
101321
101318
101314
101309
101302
101292
101278
101260
101236
101204
101164
101116
101059
100994
100921
100840
100751
100653
100548
100435