/*--------------------------------*- C++ -*----------------------------------*\
  =========                 |
  \\      /  F ield         | OpenFOAM: The Open Source CFD Toolbox
   \\    /   O peration     | Website:  https://openfoam.org
    \\  /    A nd           | Version:  10
     \\/     M anipulation  |
\*---------------------------------------------------------------------------*/
FoamFile
{
    format      ascii;
    class       surfaceScalarField;
    location    "5";
    object      phi;
}
// * * * * * * * * * * * * * * * * * * * * * * * * * * * * * * * * * * * * * //

dimensions      [0 3 -1 0 0 0 0];

internalField   nonuniform List<scalar> 
75600
(
2.16478
-1217.84
1218.29
1.79722
-1008.26
1008.62
1.49321
-834.774
835.078
1.24175
-691.17
691.422
1.03371
-572.306
572.514
0.861567
-473.927
474.099
0.719082
-392.513
392.656
0.601115
-325.15
325.268
0.503415
-269.427
269.524
0.422464
-223.348
223.429
0.355352
-185.264
185.331
0.299667
-153.813
153.868
0.253414
-127.867
127.914
0.214935
-106.5
106.538
0.182856
-88.9435
88.9756
0.15603
-74.5706
74.5975
0.1335
-62.8658
62.8883
0.114468
-53.4096
53.4286
0.0982541
-45.8631
45.8793
0.0842792
-39.9562
39.9702
0.072045
-35.4787
35.4909
0.0611114
-32.2726
32.2835
0.051112
-30.2285
30.2385
0.0417598
-29.2744
29.2838
0.0327478
-29.2944
29.3034
0.0255965
-23.4977
23.5048
0.0199523
-18.8427
18.8483
0.0155027
-15.1012
15.1056
0.0119676
-12.0941
12.0977
0.00913508
-9.67977
9.68261
0.00684493
-7.74266
7.74495
0.00497049
-6.1904
6.19228
0.00340752
-4.94763
4.9492
0.00211322
-3.9535
3.9548
0.00100219
-3.15829
3.15941
9.59961e-07
-2.52513
2.52613
-0.000927229
-2.01942
2.02035
-0.00179699
-1.61611
1.61698
-0.0026369
-1.29511
1.29595
-0.00346625
-1.04031
1.04114
-0.00429533
-0.838857
0.839686
-0.00512944
-0.680557
0.681391
-0.00597446
-0.55734
0.558185
-0.00684239
-0.462901
0.463769
-0.00775277
-0.39237
0.39328
-0.0087099
-0.342148
0.343105
-0.00979342
-0.309314
0.310397
-0.291964
0.293341
-0.0111704
2.19228
-1217.4
1.82042
-1007.88
1.51265
-834.466
1.25795
-690.915
1.04713
-572.095
0.872615
-473.753
0.728123
-392.369
0.608467
-325.031
0.509347
-269.327
0.42721
-223.265
0.359114
-185.196
0.30262
-153.756
0.255706
-127.821
0.216696
-106.461
0.184198
-88.911
0.157055
-74.5435
0.134298
-62.843
0.115121
-53.3904
0.0988417
-45.8468
0.0848766
-39.9422
0.0727272
-35.4665
0.0619546
-32.2618
0.0521988
-30.2187
0.0431851
-29.2654
0.0346044
-29.2858
0.0277668
-23.4908
0.0223621
-18.8373
0.018104
-15.0969
0.0147188
-12.0907
0.0119944
-9.67705
0.0097734
-7.74044
0.00792997
-6.18856
0.00635829
-4.94606
0.00502391
-3.95217
0.00383656
-3.15711
0.00271362
-2.52401
0.00161651
-2.01833
0.000535827
-1.61503
-0.000555983
-1.29402
-0.00167451
-1.03919
-0.00282309
-0.837708
-0.00399903
-0.679381
-0.00520223
-0.556137
-0.00644244
-0.461661
-0.00773803
-0.391074
-0.0091094
-0.340776
-0.0106234
-0.3078
-0.290169
-0.0124183
2.22158
-1216.94
1.84478
-1007.51
1.53267
-834.154
1.27421
-690.657
1.06015
-571.881
0.882872
-473.575
0.736033
-392.222
0.614388
-324.909
0.513602
-269.227
0.430073
-223.182
0.36082
-185.127
0.303373
-153.699
0.255684
-127.773
0.216053
-106.421
0.18307
-88.878
0.155562
-74.516
0.13255
-62.82
0.113219
-53.3711
0.096882
-45.8305
0.0829527
-39.9283
0.0709325
-35.4545
0.0603827
-32.2513
0.0509484
-30.2093
0.0423661
-29.2568
0.0343327
-29.2778
0.0278906
-23.4844
0.0227844
-18.8322
0.0187631
-15.0929
0.0155634
-12.0875
0.0129743
-9.67446
0.0108394
-7.7383
0.00903331
-6.18675
0.00744862
-4.94448
0.00605839
-3.95078
0.00476812
-3.15582
0.00348218
-2.52272
0.00216542
-2.01701
0.000813842
-1.61367
-0.000595904
-1.29261
-0.0020717
-1.03772
-0.00360552
-0.836174
-0.00518093
-0.677805
-0.00678736
-0.554531
-0.00842849
-0.46002
-0.0101175
-0.389385
-0.0118922
-0.339002
-0.0137807
-0.305911
-0.288099
-0.0158508
2.25291
-1216.48
1.87072
-1007.12
1.55394
-833.838
1.29145
-690.394
1.07395
-571.663
0.893743
-473.395
0.744419
-392.073
0.620687
-324.785
0.518144
-269.124
0.433149
-223.097
0.36268
-185.056
0.304231
-153.64
0.255723
-127.724
0.215432
-106.381
0.181927
-88.8445
0.15402
-74.4881
0.130717
-62.7967
0.111195
-53.3516
0.0947609
-45.814
0.0808227
-39.9144
0.0688795
-35.4425
0.058492
-32.2409
0.0493054
-30.2001
0.0410621
-29.2486
0.0334624
-29.2702
0.0273256
-23.4782
0.0224477
-18.8273
0.0186092
-15.0891
0.0155548
-12.0845
0.0130711
-9.67198
0.0109996
-7.73623
0.00921339
-6.18497
0.00760337
-4.94287
0.00614376
-3.94932
0.00474378
-3.15442
0.00329044
-2.52127
0.00176013
-2.01548
0.00015283
-1.61207
-0.00154632
-1.29091
-0.00333313
-1.03593
-0.00518413
-0.834323
-0.00706531
-0.675924
-0.00895332
-0.552643
-0.0108423
-0.458131
-0.0127387
-0.387489
-0.0146756
-0.337065
-0.0166396
-0.303947
-0.286101
-0.0186376
2.28639
-1216.01
1.89842
-1006.74
1.57669
-833.516
1.30998
-690.128
1.08891
-571.442
0.905668
-473.212
0.753799
-391.921
0.627927
-324.659
0.523599
-269.02
0.437115
-223.01
0.365409
-184.984
0.305938
-153.581
0.256591
-127.675
0.215618
-106.34
0.181565
-88.8105
0.153225
-74.4597
0.129592
-62.7731
0.109831
-53.3318
0.0932392
-45.7975
0.0792186
-39.9004
0.0672626
-35.4306
0.0569276
-32.2305
0.0478556
-30.191
0.0397876
-29.2405
0.0324222
-29.2628
0.0264383
-23.4723
0.0216728
-18.8225
0.0179274
-15.0853
0.01495
-12.0815
0.0125212
-9.66955
0.0104761
-7.73419
0.00868424
-6.18318
0.00703452
-4.94122
0.0054959
-3.94778
0.00398982
-3.15291
0.00238438
-2.51967
0.00067409
-2.01377
-0.00113717
-1.61026
-0.00305189
-1.289
-0.00505119
-1.03393
-0.00709238
-0.832282
-0.00912386
-0.673893
-0.0111101
-0.550656
-0.0130356
-0.456205
-0.0149004
-0.385624
-0.0167197
-0.335245
-0.0184568
-0.30221
-0.284474
-0.0200842
2.32228
-1215.54
1.92825
-1006.34
1.60136
-833.189
1.33028
-689.857
1.10552
-571.218
0.919174
-473.026
0.764703
-391.766
0.636655
-324.531
0.530508
-268.914
0.442511
-222.922
0.369549
-184.912
0.309038
-153.52
0.258836
-127.625
0.217162
-106.298
0.182541
-88.7759
0.153747
-74.431
0.129756
-62.7491
0.109723
-53.3118
0.0929354
-45.7807
0.078785
-39.8862
0.0667593
-35.4186
0.0564065
-32.2202
0.0473634
-30.182
0.0393654
-29.2325
0.0321059
-29.2555
0.0261746
-23.4663
0.021444
-18.8178
0.017732
-15.0816
0.0147868
-12.0786
0.0123796
-9.66714
0.0103368
-7.73215
0.00852173
-6.18136
0.00682178
-4.93952
0.00519672
-3.94616
0.0035858
-3.1513
0.00183982
-2.51792
-2.50066e-05
-2.0119
-0.00199878
-1.60828
-0.00406936
-1.28693
-0.00619923
-1.0318
-0.00832619
-0.830155
-0.0103835
-0.671835
-0.0123258
-0.548714
-0.0141329
-0.454398
-0.0158038
-0.383953
-0.0173412
-0.333708
-0.0187015
-0.30085
-0.283334
-0.0198415
2.36064
-1215.05
1.96016
-1005.94
1.6278
-832.857
1.3521
-689.581
1.12345
-570.989
0.933853
-472.836
0.776652
-391.609
0.646325
-324.401
0.538278
-268.806
0.4487
-222.833
0.374427
-184.837
0.312831
-153.459
0.261732
-127.574
0.219324
-106.256
0.184105
-88.7406
0.154827
-74.4017
0.130452
-62.7247
0.110119
-53.2914
0.0931061
-45.7637
0.0787948
-39.8719
0.0666634
-35.4064
0.0562516
-32.2098
0.0471873
-30.1729
0.0391968
-29.2245
0.0319654
-29.2483
0.0260218
-23.4604
0.0212743
-18.8131
0.0175557
-15.0779
0.0146128
-12.0756
0.0122052
-9.66473
0.0101482
-7.73009
0.00829732
-6.17951
0.006538
-4.93776
0.00481918
-3.94444
0.00310134
-3.14958
0.00122178
-2.51604
-0.000779068
-2.0099
-0.0028819
-1.60618
-0.00505891
-1.28475
-0.00725117
-1.02961
-0.00937953
-0.828027
-0.0113659
-0.669849
-0.013161
-0.546919
-0.0147486
-0.45281
-0.0161337
-0.382568
-0.0173177
-0.332524
-0.0182599
-0.299908
-0.282682
-0.018912
2.40158
-1214.56
1.99423
-1005.53
1.65608
-832.518
1.3755
-689.3
1.14275
-570.756
0.949715
-472.643
0.789647
-391.449
0.656927
-324.268
0.546889
-268.695
0.455655
-222.742
0.380008
-184.762
0.317275
-153.396
0.265238
-127.522
0.222058
-106.212
0.186207
-88.7048
0.156416
-74.3719
0.131629
-62.6999
0.110971
-53.2708
0.0937059
-45.7464
0.079205
-39.8574
0.0669364
-35.3942
0.0564288
-32.1993
0.0472982
-30.1638
0.0392589
-29.2165
0.0319841
-29.241
0.0259667
-23.4544
0.0211525
-18.8082
0.0173889
-15.0741
0.01442
-12.0727
0.0119913
-9.6623
0.00990505
-7.728
0.00800683
-6.17761
0.00617997
-4.93593
0.00436216
-3.94262
0.00253696
-3.14776
0.000534289
-2.51404
-0.00157977
-2.00779
-0.00377364
-1.60399
-0.00600276
-1.28252
-0.00818811
-1.02742
-0.0102381
-0.825977
-0.0120698
-0.668017
-0.0136393
-0.54535
-0.0149427
-0.451507
-0.0159972
-0.381514
-0.0168117
-0.331709
-0.0173521
-0.299367
-0.282462
-0.0175719
2.44519
-1214.06
2.03057
-1005.12
1.68627
-832.174
1.40053
-689.015
1.16347
-570.519
0.966829
-472.446
0.803754
-391.286
0.668529
-324.133
0.556408
-268.583
0.463444
-222.649
0.386362
-184.685
0.322441
-153.332
0.269422
-127.469
0.225433
-106.168
0.188918
-88.6683
0.158584
-74.3416
0.133357
-62.6747
0.112344
-53.2498
0.0947977
-45.7288
0.0800753
-39.8427
0.067633
-35.3817
0.056986
-32.1886
0.0477366
-30.1545
0.0395822
-29.2083
0.0321792
-29.2336
0.0260155
-23.4482
0.021076
-18.8033
0.0172224
-15.0703
0.0141946
-12.0696
0.0117209
-9.65983
0.00958865
-7.72587
0.00763127
-6.17565
0.00572967
-4.93403
0.00381086
-3.9407
0.00188209
-3.14583
-0.000225964
-2.51193
-0.0024214
-2.00559
-0.00465919
-1.60175
-0.00687812
-1.2803
-0.00898396
-1.02532
-0.01088
-0.82408
-0.0124874
-0.66641
-0.0137766
-0.54406
-0.0147625
-0.450521
-0.0154781
-0.380798
-0.0159435
-0.331244
-0.0161304
-0.29918
-0.282593
-0.0159988
2.4916
-1213.56
2.06926
-1004.7
1.71848
-831.823
1.42731
-688.723
1.18571
-570.277
0.985291
-472.246
0.81907
-391.12
0.681232
-323.995
0.566938
-268.469
0.472173
-222.554
0.393598
-184.606
0.32844
-153.267
0.274399
-127.415
0.229564
-106.124
0.192352
-88.6311
0.161445
-74.3106
0.135747
-62.649
0.11435
-53.2284
0.0964891
-45.711
0.0815085
-39.8277
0.0688505
-35.3691
0.0580139
-32.1778
0.0485833
-30.1451
0.040235
-29.2
0.0326037
-29.226
0.0262088
-23.4418
0.0210755
-18.7982
0.0170793
-15.0663
0.0139543
-12.0665
0.0114081
-9.65728
0.00921123
-7.72367
0.00718262
-6.17363
0.00520033
-4.93205
0.00318228
-3.93868
0.00115863
-3.1438
-0.00102999
-2.50974
-0.0032671
-2.00336
-0.00549438
-1.59952
-0.00763745
-1.27816
-0.0095944
-1.02336
-0.0112724
-0.822402
-0.0126064
-0.665076
-0.0135883
-0.543078
-0.0142537
-0.449856
-0.014652
-0.3804
-0.0148134
-0.331083
-0.0147128
-0.299281
-0.282987
-0.0143189
2.54093
-1213.04
2.11043
-1004.27
1.7528
-831.466
1.45592
-688.427
1.20956
-570.031
1.00519
-472.042
0.835689
-390.95
0.695128
-323.855
0.578579
-268.353
0.481944
-222.457
0.40182
-184.526
0.335379
-153.2
0.280275
-127.36
0.23456
-106.078
0.196619
-88.5931
0.165108
-74.2791
0.138908
-62.6228
0.117093
-53.2066
0.098882
-45.6928
0.0836023
-39.8124
0.07068
-35.3561
0.0595956
-32.1667
0.0499114
-30.1354
0.0412772
-29.1913
0.0333015
-29.218
0.0265766
-23.4351
0.0211703
-18.7928
0.0169708
-15.0621
0.0137041
-12.0632
0.0110542
-9.65463
0.00877214
-7.72139
0.00666016
-6.17151
0.00459278
-4.92998
0.00248142
-3.93657
0.00037687
-3.1417
-0.00186141
-2.5075
-0.00409489
-2.00112
-0.00625309
-1.59736
-0.00825665
-1.27615
-0.0100049
-1.02161
-0.0114181
-0.820989
-0.0124532
-0.66404
-0.0131268
-0.542405
-0.0134943
-0.449488
-0.0136179
-0.380276
-0.0135337
-0.331167
-0.0132161
-0.299598
-0.28356
-0.0126434
2.59331
-1212.51
2.15417
-1003.83
1.78933
-831.101
1.48645
-688.124
1.23512
-569.78
1.02663
-471.833
0.853711
-390.777
0.710325
-323.711
0.591439
-268.234
0.49287
-222.359
0.411144
-184.444
0.343376
-153.133
0.287171
-127.303
0.240543
-106.031
0.20184
-88.5544
0.169694
-74.247
0.142959
-62.5961
0.120691
-53.1843
0.10209
-45.6742
0.0864654
-39.7968
0.0732238
-35.3429
0.0618242
-32.1553
0.0518026
-30.1254
0.0427766
-29.1823
0.0343215
-29.2096
0.0271533
-23.4279
0.0213827
-18.787
0.0169101
-15.0576
0.0134508
-12.0598
0.010662
-9.65184
0.00827207
-7.719
0.00606462
-6.16931
0.00390971
-4.92783
0.00171512
-3.93438
-0.000450746
-3.13953
-0.00270236
-2.50525
-0.00488398
-1.99894
-0.00691526
-1.59533
-0.00872264
-1.27435
-0.0102163
-1.02012
-0.0113378
-0.819868
-0.0120717
-0.663307
-0.0124575
-0.542019
-0.0125672
-0.449379
-0.0124704
-0.380373
-0.012203
-0.331434
-0.0117348
-0.300067
-0.284241
-0.0110542
2.64887
-1211.97
2.20061
-1003.38
1.82819
-830.728
1.51903
-687.814
1.26249
-569.523
1.04971
-471.62
0.873248
-390.601
0.726939
-323.565
0.605638
-268.112
0.505074
-222.258
0.421698
-184.361
0.352563
-153.064
0.295222
-127.246
0.247648
-105.984
0.208153
-88.5149
0.175339
-74.2142
0.148036
-62.5688
0.125277
-53.1615
0.106242
-45.6551
0.0902193
-39.7808
0.0765959
-35.3293
0.0648043
-32.1435
0.0543489
-30.1149
0.0448086
-29.1728
0.0357191
-29.2005
0.0279776
-23.4202
0.0217385
-18.7808
0.016913
-15.0528
0.0132033
-12.0561
0.0102358
-9.64888
0.00771318
-7.71648
0.00539828
-6.16699
0.00315559
-4.92558
0.000892125
-3.93211
-0.00131057
-3.13733
-0.00353612
-2.50303
-0.00561702
-1.99686
-0.00746848
-1.59348
-0.00903429
-1.27278
-0.010244
-1.01891
-0.0110668
-0.819045
-0.0115157
-0.662858
-0.0116494
-0.541885
-0.01155
-0.449478
-0.0112894
-0.380633
-0.0108986
-0.331825
-0.0103397
-0.300625
-0.284973
-0.00960737
2.70774
-1211.42
2.24988
-1002.92
1.86949
-830.348
1.55374
-687.499
1.2918
-569.261
1.07455
-471.403
0.894427
-390.421
0.745099
-323.416
0.621314
-267.989
0.5187
-222.156
0.43363
-184.276
0.363091
-152.993
0.304582
-127.187
0.256031
-105.935
0.215714
-88.4746
0.1822
-74.1807
0.154293
-62.5408
0.131001
-53.1382
0.111484
-45.6356
0.0950066
-39.7643
0.0809302
-35.3152
0.0686582
-32.1312
0.057659
-30.1039
0.0474647
-29.1626
0.0375634
-29.1906
0.0291004
-23.4117
0.0222741
-18.7739
0.0170053
-15.0475
0.0129794
-12.052
0.00978879
-9.64568
0.00710648
-7.7138
0.00467244
-6.16456
0.00234401
-4.92325
2.98424e-05
-3.9298
-0.00218097
-3.13512
-0.00434014
-2.50087
-0.00627422
-1.99493
-0.00790198
-1.59185
-0.00919483
-1.27149
-0.0101083
-1.01799
-0.0106426
-0.81851
-0.0108363
-0.662664
-0.010761
-0.54196
-0.010502
-0.449737
-0.0101291
-0.381006
-0.0096656
-0.332288
-0.00906622
-0.301225
-0.285714
-0.00832521
2.77007
-1210.86
2.3021
-1002.45
1.91335
-829.959
1.59074
-687.176
1.32316
-568.994
1.1013
-471.181
0.917387
-390.237
0.764959
-323.263
0.638626
-267.862
0.533914
-222.051
0.447112
-184.189
0.375137
-152.921
0.315433
-127.128
0.265877
-105.885
0.224709
-88.4334
0.190463
-74.1464
0.161914
-62.5123
0.138047
-53.1144
0.117994
-45.6156
0.100996
-39.7473
0.086386
-35.3006
0.0735342
-32.1184
0.0618653
-30.0923
0.0508574
-29.1516
0.0399429
-29.1797
0.030591
-23.4024
0.0230436
-18.7664
0.0172292
-15.0417
0.0128132
-12.0476
0.00934979
-9.64222
0.00647838
-7.71092
0.00391363
-6.16199
0.00150378
-4.92084
-0.000839135
-3.92745
-0.00302527
-3.13293
-0.00507923
-2.49881
-0.00682781
-1.99318
-0.00820077
-1.59048
-0.0092038
-1.27048
-0.00982404
-1.01737
-0.0100924
-0.818242
-0.0100678
-0.662689
-0.0098269
-0.542201
-0.00945239
-0.450111
-0.00900897
-0.38145
-0.00851126
-0.332786
-0.00791018
-0.301826
-0.286429
-0.00719469
2.83601
-1210.28
2.3574
-1001.98
1.95989
-829.562
1.63011
-686.846
1.35667
-568.72
1.13004
-470.955
0.942242
-390.049
0.786632
-323.108
0.657693
-267.733
0.550842
-221.944
0.462275
-184.1
0.388838
-152.848
0.327913
-127.067
0.277328
-105.835
0.235279
-88.3914
0.200269
-74.1114
0.17104
-62.4831
0.146547
-53.0899
0.1259
-45.5949
0.108308
-39.7297
0.093074
-35.2854
0.0795288
-32.1048
0.0670475
-30.0798
0.0550453
-29.1396
0.0428892
-29.1675
0.0324591
-23.3919
0.0240395
-18.758
0.0175642
-15.0352
0.0126748
-12.0427
0.0088833
-9.63843
0.00579061
-7.70783
0.00308352
-6.15929
0.000598591
-4.91836
-0.00174898
-3.92511
-0.00387532
-3.13081
-0.00578658
-2.4969
-0.00732114
-1.99164
-0.00842378
-1.58938
-0.00913314
-1.26977
-0.00947425
-1.01703
-0.00950512
-0.818211
-0.00929833
-0.662895
-0.00892933
-0.54257
-0.00847481
-0.450566
-0.00799227
-0.381932
-0.0074875
-0.333291
-0.00691162
-0.302401
-0.287094
-0.00624656
2.90572
-1209.69
2.41591
-1001.49
2.00924
-829.155
1.672
-686.509
1.3925
-568.441
1.16095
-470.723
0.969155
-389.857
0.810295
-322.949
0.678704
-267.602
0.56968
-221.835
0.479324
-184.01
0.404404
-152.773
0.342237
-127.005
0.2906
-105.783
0.247646
-88.3484
0.211838
-74.0756
0.181886
-62.4531
0.156718
-53.0647
0.135411
-45.5736
0.117144
-39.7114
0.101184
-35.2694
0.0868174
-32.0905
0.073363
-30.0663
0.0601622
-29.1264
0.0465077
-29.1538
0.0347875
-23.3802
0.0253265
-18.7485
0.0180614
-15.028
0.0126057
-12.0373
0.00842489
-9.63425
0.00507588
-7.70448
0.00221444
-6.15642
-0.000337787
-4.91581
-0.00266476
-3.92278
-0.00469531
-3.12878
-0.00642835
-2.49517
-0.0077329
-1.99034
-0.00856816
-1.58854
-0.00899092
-1.26935
-0.00907472
-1.01695
-0.00889926
-0.818387
-0.00854349
-0.663251
-0.00807731
-0.543036
-0.00756844
-0.451075
-0.00706685
-0.382433
-0.0065703
-0.333787
-0.00603671
-0.302935
-0.287693
-0.00543845
2.97936
-1209.09
2.4778
-1000.98
2.06155
-828.739
1.71655
-686.164
1.43079
-568.155
1.19418
-470.486
0.998293
-389.662
0.836123
-322.787
0.701842
-267.467
0.590622
-221.724
0.49846
-183.918
0.422042
-152.696
0.358619
-126.941
0.305912
-105.731
0.262028
-88.3046
0.22539
-74.039
0.194673
-62.4224
0.168772
-53.0388
0.146734
-45.5516
0.127701
-39.6924
0.110901
-35.2526
0.0955693
-32.0751
0.0809604
-30.0517
0.0663326
-29.1117
0.0508919
-29.1384
0.0376448
-23.367
0.0269541
-18.7378
0.0187555
-15.0198
0.0126302
-12.0312
0.007992
-9.62961
0.00434835
-7.70084
0.00131973
-6.1534
-0.00129067
-4.9132
-0.00357078
-3.9205
-0.00547067
-3.12688
-0.00699237
-2.49365
-0.00806194
-1.98927
-0.00865164
-1.58795
-0.00880416
-1.2692
-0.00865807
-1.0171
-0.00830836
-0.818736
-0.00783267
-0.663727
-0.00729243
-0.543576
-0.00674504
-0.451622
-0.0062325
-0.382946
-0.00574569
-0.334274
-0.0052579
-0.303423
-0.288216
-0.00473439
3.0571
-1208.47
2.54322
-1000.47
2.11697
-828.313
1.76391
-685.811
1.47168
-567.863
1.22988
-470.245
1.02983
-389.461
0.864302
-322.621
0.727306
-267.33
0.613876
-221.61
0.519902
-183.824
0.44198
-152.618
0.377291
-126.877
0.323499
-105.677
0.278662
-88.2597
0.241161
-74.0015
0.209634
-62.3909
0.18294
-53.0121
0.160092
-45.5287
0.140193
-39.6725
0.122424
-35.2348
0.105967
-32.0587
0.0900015
-30.0358
0.0736911
-29.0954
0.0561435
-29.1209
0.0411069
-23.3519
0.0289773
-18.7257
0.0196859
-15.0105
0.0127764
-12.0242
0.00760584
-9.62444
0.00362542
-7.69686
0.000415213
-6.15018
-0.00224536
-4.91054
-0.00445439
-3.91829
-0.00619044
-3.12514
-0.00746828
-2.49237
-0.00829586
-1.98844
-0.00866721
-1.58758
-0.0085879
-1.26928
-0.0082466
-1.01744
-0.0077559
-0.819227
-0.00718683
-0.664296
-0.0065917
-0.544171
-0.00601835
-0.452195
-0.00549955
-0.383465
-0.00501272
-0.334761
-0.00454631
-0.303889
-0.28869
-0.00407212
3.13914
-1207.83
2.61233
-999.944
2.17565
-827.876
1.81424
-685.45
1.51534
-567.564
1.26824
-469.998
1.06395
-389.257
0.895033
-322.452
0.755309
-267.191
0.639667
-221.495
0.543882
-183.728
0.464459
-152.539
0.398502
-126.811
0.343615
-105.622
0.297804
-88.2139
0.259408
-73.9631
0.227022
-62.3585
0.19947
-52.9846
0.175726
-45.505
0.154849
-39.6516
0.13597
-35.2159
0.118208
-32.0409
0.10066
-30.0182
0.0823826
-29.0771
0.0623729
-29.1008
0.0452566
-23.3348
0.0314577
-18.7119
0.0208976
-14.9999
0.0130774
-12.0164
0.00729145
-9.61865
0.00292759
-7.69249
-0.000481024
-6.14678
-0.00318621
-4.90783
-0.00530413
-3.91617
-0.00684848
-3.1236
-0.00786098
-2.49136
-0.00842898
-1.98787
-0.00858174
-1.58743
-0.00833365
-1.26953
-0.00785109
-1.01792
-0.00725976
-0.819818
-0.00662811
-0.664927
-0.00600217
-0.544797
-0.00542143
-0.452776
-0.00491097
-0.383975
-0.004431
-0.335241
-0.00397211
-0.304348
-0.289143
-0.00351921
3.22565
-1207.18
2.68531
-999.403
2.23775
-827.428
1.8677
-685.08
1.56196
-567.258
1.30943
-469.745
1.10086
-389.049
0.928529
-322.28
0.786077
-267.048
0.668234
-221.377
0.570652
-183.63
0.489737
-152.458
0.422516
-126.743
0.366529
-105.566
0.319727
-88.1671
0.280403
-73.9237
0.247108
-62.3252
0.218627
-52.9561
0.193892
-45.4802
0.171914
-39.6296
0.151768
-35.1958
0.132502
-32.0217
0.113122
-29.9988
0.0925632
-29.0566
0.0696988
-29.078
0.0501838
-23.3153
0.0344626
-18.6962
0.0224408
-14.9879
0.013571
-12.0076
0.00707797
-9.61216
0.00227871
-7.6877
-0.00134786
-6.14315
-0.00409508
-4.90508
-0.0061095
-3.91416
-0.00744913
-3.12226
-0.00821327
-2.49059
-0.00853245
-1.98755
-0.00845574
-1.5875
-0.0080637
-1.26992
-0.00748176
-1.0185
-0.00682722
-0.820473
-0.00616153
-0.665593
-0.00552435
-0.545434
-0.00494781
-0.453353
-0.00445037
-0.384472
-0.00398332
-0.335708
-0.00352962
-0.304802
-0.289606
-0.00306668
3.31684
-1206.51
2.76232
-998.849
2.30346
-826.97
1.92446
-684.701
1.6117
-566.945
1.35366
-469.487
1.14076
-388.836
0.965015
-322.104
0.819849
-266.903
0.699829
-221.257
0.600475
-183.531
0.518088
-152.376
0.449616
-126.675
0.392527
-105.509
0.344719
-88.1193
0.304433
-73.8835
0.270177
-62.2909
0.24069
-52.9266
0.214861
-45.4544
0.191646
-39.6064
0.170059
-35.1742
0.149071
-32.0007
0.127582
-29.9773
0.104397
-29.0334
0.078248
-29.0518
0.0559857
-23.293
0.0380661
-18.6782
0.0243715
-14.9742
0.0142997
-11.9975
0.00699888
-9.60486
0.00170591
-7.6824
-0.00216348
-6.13928
-0.00495622
-4.90229
-0.00686345
-3.91225
-0.00799828
-3.12112
-0.00852629
-2.49006
-0.00860712
-1.98747
-0.00832432
-1.58779
-0.00779781
-1.27045
-0.00713932
-1.01916
-0.00644244
-0.821169
-0.00575742
-0.666278
-0.00511931
-0.546073
-0.00455389
-0.453918
-0.00407087
-0.384955
-0.0036136
-0.336165
-0.00315983
-0.305255
-0.290093
-0.0026727
3.41293
-1205.83
2.84358
-998.279
2.37294
-826.499
1.98472
-684.312
1.66476
-566.625
1.40114
-469.223
1.18387
-388.618
1.00473
-321.925
0.856877
-266.755
0.734717
-221.135
0.633627
-183.43
0.5498
-152.292
0.480094
-126.605
0.421909
-105.451
0.373082
-88.0705
0.331803
-73.8422
0.296528
-62.2557
0.265954
-52.896
0.238918
-45.4274
0.214318
-39.5818
0.191099
-35.151
0.168147
-31.9777
0.144247
-29.9534
0.118057
-29.0072
0.0881545
-29.0219
0.0627663
-23.2676
0.0423484
-18.6578
0.0267515
-14.9586
0.0153116
-11.986
0.00709166
-9.59664
0.00123927
-7.67655
-0.00290454
-6.13514
-0.0057542
-4.89944
-0.00756164
-3.91044
-0.00850483
-3.12018
-0.00879847
-2.48977
-0.00865442
-1.98762
-0.00820473
-1.58824
-0.00756117
-1.27109
-0.00683644
-1.01988
-0.00610186
-0.821904
-0.00539765
-0.666982
-0.00475931
-0.546711
-0.00420949
-0.454468
-0.00374907
-0.385416
-0.00330864
-0.336606
-0.00285578
-0.305708
-0.290608
-0.00234104
3.51413
-1205.12
2.92926
-997.694
2.4464
-826.016
2.04866
-683.915
1.72135
-566.298
1.45206
-468.954
1.23043
-388.397
1.04791
-321.742
0.89742
-266.605
0.773172
-221.01
0.670396
-183.327
0.585169
-152.207
0.514258
-126.534
0.454987
-105.391
0.405131
-88.0206
0.362825
-73.7999
0.326473
-62.2193
0.294723
-52.8643
0.266358
-45.399
0.24021
-39.5557
0.21515
-35.1259
0.189971
-31.9525
0.16333
-29.9268
0.133724
-28.9776
0.0995588
-28.9878
0.0706356
-23.2387
0.0473958
-18.6346
0.0296484
-14.9408
0.0166594
-11.9731
0.00739802
-9.58738
0.000911731
-7.67006
-0.0035461
-6.13068
-0.00647348
-4.89651
-0.0082008
-3.90872
-0.00898081
-3.1194
-0.00906502
-2.48968
-0.00871062
-1.98797
-0.0081159
-1.58883
-0.00739861
-1.27181
-0.00663798
-1.02064
-0.00588188
-0.82266
-0.00516343
-0.6677
-0.00451867
-0.547356
-0.00397087
-0.455015
-0.00351849
-0.385868
-0.00309579
-0.337029
-0.00267
-0.306134
-0.291117
-0.00216092
3.62068
-1204.39
3.01959
-997.093
2.52402
-825.52
2.11648
-683.507
1.78167
-565.963
1.50666
-468.679
1.28067
-388.171
1.09481
-321.557
0.941748
-266.452
0.815479
-220.884
0.711079
-183.223
0.624503
-152.12
0.552421
-126.462
0.49208
-105.331
0.441188
-87.9697
0.397822
-73.7565
0.360331
-62.1818
0.327309
-52.8312
0.297481
-45.3692
0.269609
-39.5278
0.242482
-35.0988
0.214788
-31.9248
0.185048
-29.8971
0.151581
-28.9441
0.112606
-28.9488
0.0797087
-23.2058
0.0532997
-18.6082
0.0331351
-14.9207
0.018401
-11.9583
0.00796366
-9.57694
0.000758876
-7.66286
-0.00406248
-6.12586
-0.00709872
-4.89348
-0.0087761
-3.90704
-0.0094364
-3.11874
-0.00938499
-2.48974
-0.00887928
-1.98848
-0.00815044
-1.58956
-0.00736372
-1.27259
-0.00657605
-1.02143
-0.00580647
-0.823429
-0.00507309
-0.668434
-0.00440914
-0.548019
-0.00384159
-0.455583
-0.00337458
-0.386335
-0.00296079
-0.337442
-0.00258966
-0.306505
-0.29156
-0.00214636
3.73281
-1203.65
3.11478
-996.475
2.60602
-825.012
2.18838
-683.089
1.84592
-565.621
1.56515
-468.398
1.33483
-387.941
1.1457
-321.367
0.990133
-266.296
0.861924
-220.756
0.755974
-183.117
0.668111
-152.032
0.594901
-126.389
0.53351
-105.27
0.481577
-87.9178
0.437118
-73.712
0.398422
-62.1431
0.364026
-52.7969
0.332593
-45.3378
0.302806
-39.498
0.273365
-35.0694
0.242848
-31.8943
0.209622
-29.8638
0.171816
-28.9063
0.127444
-28.9044
0.0901042
-23.1685
0.0601562
-18.5782
0.0372888
-14.8978
0.0205984
-11.9416
0.00883792
-9.56518
0.000818791
-7.65484
-0.00442667
-6.12061
-0.00761389
-4.89029
-0.00927793
-3.90537
-0.00984964
-3.11817
-0.00968935
-2.4899
-0.00907274
-1.98909
-0.00824558
-1.59039
-0.00738736
-1.27345
-0.00654985
-1.02227
-0.00574203
-0.824237
-0.00497686
-0.669199
-0.00428972
-0.548706
-0.00371124
-0.456162
-0.0032456
-0.386801
-0.00285195
-0.337836
-0.00251178
-0.306845
-0.291983
-0.00208903
3.85081
-1202.88
3.21508
-995.84
2.69265
-824.489
2.26463
-682.661
1.91439
-565.271
1.62783
-468.112
1.39322
-387.706
1.20088
-321.175
1.04291
-266.138
0.91286
-220.626
0.80545
-183.009
0.716371
-151.943
0.642085
-126.315
0.579672
-105.207
0.526696
-87.8648
0.48111
-73.6665
0.44114
-62.1032
0.405262
-52.761
0.372069
-45.3046
0.340162
-39.4661
0.308143
-35.0373
0.274471
-31.8607
0.237346
-29.8267
0.194693
-28.8637
0.144301
-28.854
0.102023
-23.1262
0.0681449
-18.5443
0.0422721
-14.8719
0.0233994
-11.9228
0.0101553
-9.55194
0.00121361
-7.6459
-0.00452874
-6.11487
-0.00792039
-4.8869
-0.00961355
-3.90368
-0.0101269
-3.11765
-0.00987591
-2.49015
-0.00917462
-1.9898
-0.00827533
-1.59129
-0.00734878
-1.27438
-0.00645226
-1.02317
-0.00559743
-0.825092
-0.00479911
-0.669997
-0.00409392
-0.549412
-0.00351024
-0.456745
-0.00304547
-0.387265
-0.00267379
-0.338208
-0.0023553
-0.307164
-0.292398
-0.00194002
3.97493
-1202.08
3.32071
-995.185
2.78408
-823.953
2.34539
-682.223
1.98724
-564.912
1.69487
-467.819
1.45601
-387.467
1.26056
-320.98
1.1003
-265.978
0.968506
-220.494
0.859732
-182.901
0.76952
-151.853
0.694215
-126.239
0.630808
-105.144
0.57679
-87.8108
0.530041
-73.6197
0.488722
-62.0618
0.451245
-52.7235
0.416129
-45.2694
0.381883
-39.4319
0.347003
-35.0025
0.30982
-31.8235
0.268357
-29.7853
0.220316
-28.8156
0.163248
-28.797
0.115511
-23.0785
0.0772912
-18.5061
0.048093
-14.8427
0.0267965
-11.9015
0.0118938
-9.53703
0.00190698
-7.63591
-0.00441904
-6.10854
-0.00807927
-4.88324
-0.00984965
-3.90191
-0.0103374
-3.11716
-0.0100199
-2.49046
-0.00925581
-1.99056
-0.0083091
-1.59223
-0.00734469
-1.27534
-0.00641698
-1.02409
-0.00553561
-0.825973
-0.00471333
-0.670819
-0.00398483
-0.55014
-0.00337485
-0.457355
-0.00287834
-0.387762
-0.00249614
-0.33859
-0.0021717
-0.307488
-0.292812
-0.00175689
4.10544
-1201.26
3.43189
-994.512
2.88053
-823.401
2.43086
-681.773
2.06466
-564.546
1.76646
-467.521
1.5234
-387.224
1.32494
-320.781
1.16249
-265.815
1.02908
-220.361
0.919047
-182.791
0.827786
-151.762
0.751525
-126.163
0.687157
-105.079
0.632094
-87.7557
0.584145
-73.5718
0.5414
-62.0191
0.502199
-52.6843
0.464983
-45.2322
0.428163
-39.395
0.390123
-34.9644
0.349053
-31.7824
0.302788
-29.739
0.248791
-28.7616
0.184358
-28.7325
0.13062
-23.0247
0.0876282
-18.4631
0.0547688
-14.8099
0.0307921
-11.8775
0.0140414
-9.52028
0.00287221
-7.62474
-0.00413839
-6.10153
-0.00814415
-4.87923
-0.0100493
-3.9
-0.0105506
-3.11666
-0.0101909
-2.49082
-0.00937924
-1.99137
-0.00840495
-1.59321
-0.00743669
-1.27631
-0.00651802
-1.02501
-0.00564312
-0.826848
-0.00481347
-0.671649
-0.00405891
-0.550895
-0.00340512
-0.458009
-0.00285301
-0.388314
-0.0024171
-0.339026
-0.00204589
-0.30786
-0.293217
-0.00164223
4.24266
-1200.42
3.54892
-993.818
2.98226
-822.835
2.52129
-681.312
2.14691
-564.172
1.84286
-467.217
1.59567
-386.977
1.3943
-320.58
1.22979
-265.651
1.09489
-220.226
0.983712
-182.679
0.891497
-151.669
0.814345
-126.086
0.749053
-105.014
0.692946
-87.6996
0.643758
-73.5226
0.599503
-61.9748
0.558448
-52.6432
0.518947
-45.1927
0.479306
-39.3554
0.437789
-34.9229
0.392437
-31.7371
0.340882
-29.6874
0.28034
-28.7011
0.207829
-28.66
0.147527
-22.9644
0.0993199
-18.4149
0.0624503
-14.773
0.0355238
-11.8506
0.0167212
-9.50148
0.00421757
-7.61224
-0.00359362
-6.09372
-0.00803631
-4.87479
-0.010148
-3.89789
-0.0107154
-3.1161
-0.0103436
-2.4912
-0.00948849
-1.99223
-0.00847476
-1.59422
-0.00749297
-1.27729
-0.00658957
-1.02592
-0.00574833
-0.827689
-0.00495881
-0.672438
-0.00424055
-0.551613
-0.00361293
-0.458637
-0.00307554
-0.388851
-0.00264011
-0.339462
-0.0022145
-0.308284
-0.293707
-0.00172318
4.38688
-1199.55
3.67204
-993.103
3.08951
-822.252
2.61692
-680.839
2.2342
-563.789
1.92429
-466.907
1.67304
-386.726
1.46887
-320.376
1.30244
-265.484
1.16617
-220.089
1.05397
-182.567
0.960894
-151.576
0.882923
-126.008
0.816742
-104.948
0.759591
-87.6425
0.709121
-73.4721
0.663268
-61.929
0.620222
-52.6002
0.57824
-45.1507
0.535519
-39.3127
0.490194
-34.8776
0.440149
-31.687
0.3828
-29.6301
0.3151
-28.6334
0.233779
-28.5787
0.16634
-22.897
0.112463
-18.361
0.0712226
-14.7318
0.0410638
-11.8204
0.0199912
-9.48041
0.0059855
-7.59823
-0.00275779
-6.08498
-0.00774372
-4.8698
-0.0101515
-3.89549
-0.0108621
-3.11539
-0.0105348
-2.49152
-0.00965749
-1.9931
-0.00857787
-1.5953
-0.00751307
-1.27836
-0.00653094
-1.0269
-0.00563028
-0.82859
-0.00481037
-0.673258
-0.00408734
-0.552336
-0.00346348
-0.45926
-0.00290518
-0.38941
-0.00250498
-0.339862
-0.0021029
-0.308687
-0.294254
-0.00155693
4.53845
-1198.65
3.80156
-992.366
3.20253
-821.653
2.71796
-680.355
2.32675
-563.398
2.01096
-466.591
1.75571
-386.47
1.54886
-320.169
1.38062
-265.316
1.24312
-219.952
1.13002
-182.454
1.03618
-151.482
0.957461
-125.929
0.890427
-104.881
0.832229
-87.5843
0.780432
-73.4203
0.732889
-61.8814
0.687705
-52.555
0.643039
-45.1061
0.596969
-39.2666
0.547493
-34.8281
0.49233
-31.6318
0.428669
-29.5664
0.353187
-28.5579
0.262311
-28.4878
0.187154
-22.8218
0.127145
-18.301
0.0811662
-14.6858
0.0474819
-11.7867
0.0239081
-9.45683
0.0082178
-7.58254
-0.00160376
-6.07515
-0.00725284
-4.86415
-0.0100625
-3.89268
-0.0110197
-3.11443
-0.010843
-2.4917
-0.010048
-1.9939
-0.00899207
-1.59635