/*--------------------------------*- C++ -*----------------------------------*\
  =========                 |
  \\      /  F ield         | OpenFOAM: The Open Source CFD Toolbox
   \\    /   O peration     | Website:  https://openfoam.org
    \\  /    A nd           | Version:  10
     \\/     M anipulation  |
\*---------------------------------------------------------------------------*/
FoamFile
{
    format      ascii;
    class       volVectorField;
    location    "5";
    object      U;
}
// * * * * * * * * * * * * * * * * * * * * * * * * * * * * * * * * * * * * * //

dimensions      [0 1 -1 0 0 0 0];

internalField   nonuniform List<vector> 
38016
(
(51.3074 9.03565 2.45294e-20)
(51.3072 9.03869 7.40958e-21)
(51.3075 9.03838 -8.94377e-21)
(51.3076 9.03823 0)
(51.3078 9.03788 0)
(51.3081 9.03733 0)
(51.3086 9.03655 -9.47211e-21)
(51.3093 9.03548 -9.35181e-17)
(51.3105 9.03399 1.37538e-20)
(51.3123 9.03198 -1.65568e-20)
(51.3151 9.02926 -4.07578e-17)
(51.3192 9.02562 -1.23807e-24)
(51.3252 9.02084 -2.93885e-17)
(51.3336 9.01463 -3.51341e-17)
(51.3452 9.00665 2.0954e-17)
(51.361 8.99655 0)
(51.3816 8.98385 0)
(51.4083 8.96785 0)
(51.4423 8.94761 -1.93605e-20)
(51.485 8.92195 2.20584e-20)
(51.5386 8.88895 -6.30317e-18)
(51.6054 8.84648 6.85932e-18)
(51.6883 8.78877 -7.23455e-18)
(51.7801 8.71899 2.87252e-20)
(51.9397 8.64251 -7.57352e-18)
(52.118 8.56157 7.41749e-23)
(52.2764 8.48992 -3.10372e-18)
(52.4161 8.44361 3.03231e-20)
(52.5229 8.41365 3.70243e-23)
(52.6062 8.38944 0)
(52.664 8.364 2.89573e-23)
(52.7011 8.33009 3.70881e-20)
(52.7145 8.27882 -1.53206e-18)
(52.7055 8.19934 0)
(52.6625 8.11331 0)
(52.652 7.99522 0)
(52.614 7.81551 0)
(52.5518 7.5941 -2.85323e-19)
(52.4661 7.32557 -1.78012e-19)
(52.3558 7.00698 -2.95322e-23)
(52.2205 6.63879 -4.16606e-23)
(52.06 6.22524 5.06132e-19)
(51.8706 5.76962 -1.02722e-19)
(51.6487 5.27224 1.23224e-19)
(51.3897 4.72604 0)
(51.094 4.10247 0)
(50.7142 3.46355 -7.25346e-19)
(50.2337 2.661 6.6659e-19)
(51.3074 9.03558 -8.04064e-16)
(51.3072 9.03866 2.96485e-20)
(51.3075 9.03834 5.8631e-16)
(51.3076 9.03819 0)
(51.3078 9.03783 0)
(51.3081 9.03728 -2.57494e-16)
(51.3086 9.03648 5.92243e-22)
(51.3093 9.03538 9.35691e-17)
(51.3105 9.03387 -1.12725e-16)
(51.3123 9.0318 -8.28252e-21)
(51.3151 9.029 -4.07924e-17)
(51.3193 9.02526 -1.19652e-20)
(51.3253 9.02032 2.94002e-17)
(51.3339 9.01389 3.51557e-17)
(51.3457 9.0056 -2.09628e-17)
(51.3617 8.99508 4.97824e-17)
(51.3828 8.98181 2.93792e-17)
(51.4102 8.96504 -3.35833e-20)
(51.4453 8.94375 1.05969e-23)
(51.49 8.91667 4.43533e-20)
(51.5468 8.88173 1.90455e-17)
(51.6192 8.83655 -2.07787e-17)
(51.7128 8.77499 7.36096e-18)
(51.8232 8.69999 1.49956e-17)
(51.9714 8.61641 -7.54234e-18)
(52.1629 8.52837 -1.88642e-20)
(52.3296 8.45079 3.07173e-18)
(52.4728 8.40032 7.73231e-18)
(52.5787 8.36788 -4.8075e-18)
(52.6562 8.34131 0)
(52.706 8.31267 0)
(52.7332 8.27429 2.36925e-18)
(52.7369 8.21672 1.48335e-18)
(52.7196 8.12823 -1.85757e-18)
(52.6637 8.03014 0)
(52.6466 7.89653 1.45773e-18)
(52.5972 7.69667 0)
(52.5208 7.45054 2.85373e-19)
(52.4177 7.15284 -3.56437e-19)
(52.2861 6.8014 4.44076e-19)
(52.1257 6.39806 -5.50627e-19)
(51.936 5.94935 -1.69454e-19)
(51.7123 5.46053 -1.03154e-19)
(51.4501 4.93328 1.23756e-19)
(51.1438 4.36116 0)
(50.7927 3.71642 0)
(50.3417 3.06201 -5.45879e-19)
(49.7701 2.28361 6.68412e-19)
(51.3074 9.03551 -3.12445e-22)
(51.3072 9.03863 0)
(51.3075 9.0383 -1.17311e-15)
(51.3076 9.03815 0)
(51.3078 9.03779 0)
(51.3081 9.03722 2.57591e-16)
(51.3086 9.03641 -4.73973e-21)
(51.3093 9.03528 7.14166e-21)
(51.3105 9.03373 1.12769e-16)
(51.3123 9.03161 -8.28604e-21)
(51.3151 9.02873 8.16514e-17)
(51.3192 9.02488 9.80697e-17)
(51.3252 9.01977 -1.17575e-16)
(51.3338 9.0131 -6.87015e-20)
(51.3456 9.00448 4.09711e-20)
(51.3615 8.99349 -4.97948e-17)
(51.3825 8.9796 -2.9405e-17)
(51.4099 8.96198 -7.55709e-24)
(51.4449 8.93953 -3.89387e-20)
(51.4896 8.91089 0)
(51.5464 8.8738 -3.81728e-17)
(51.619 8.82568 1.38924e-17)
(51.7133 8.75997 -1.47502e-17)
(51.8247 8.67931 -3.01263e-17)
(51.9728 8.58833 1.04112e-21)
(52.1641 8.49271 0)
(52.3323 8.40875 1.22231e-17)
(52.4773 8.35376 -7.64945e-18)
(52.5873 8.31867 4.75995e-18)
(52.6671 8.28984 0)
(52.7184 8.25819 1.18219e-19)
(52.7466 8.21566 2.07017e-18)
(52.7514 8.15226 3.70374e-19)
(52.736 8.05575 1.39179e-18)
(52.6797 7.94643 -2.03484e-18)
(52.6597 7.79855 -1.45653e-18)
(52.604 7.58146 0)
(52.5177 7.31467 -1.14045e-18)
(52.4 6.99369 3.56333e-19)
(52.2487 6.6177 -4.44179e-19)
(52.0631 6.19067 1.10204e-18)
(51.8421 5.72135 -6.77849e-19)
(51.5811 5.21779 1.03177e-18)
(51.2748 4.68319 -2.47147e-19)
(50.917 4.11215 2.80855e-22)
(50.5059 3.48134 -1.65055e-18)
(49.9869 2.85157 -3.12161e-23)
(49.3303 2.14437 -1.32964e-18)
(51.3074 9.03543 2.41365e-15)
(51.3072 9.03859 0)
(51.3075 9.03826 5.86691e-16)
(51.3076 9.03811 8.64432e-20)
(51.3078 9.03774 8.54458e-16)
(51.3081 9.03716 -1.5728e-20)
(51.3086 9.03633 -3.10728e-16)
(51.3093 9.03518 0)
(51.3105 9.03359 -2.25638e-16)
(51.3123 9.03141 0)
(51.315 9.02845 1.63379e-16)
(51.3192 9.02447 -9.81427e-17)
(51.3252 9.01918 1.17639e-16)
(51.3337 9.01225 3.43726e-20)
(51.3454 9.00327 8.39602e-17)
(51.3613 8.99179 9.97126e-17)
(51.3823 8.97721 -5.74757e-20)
(51.4096 8.95866 6.73228e-20)
(51.4445 8.93494 0)
(51.4891 8.90458 -4.556e-17)
(51.5459 8.86514 5.10033e-17)
(51.6185 8.81377 -2.78597e-17)
(51.7131 8.74355 4.43252e-17)
(51.8254 8.65671 1.52115e-17)
(51.9749 8.55741 1.49745e-17)
(52.1654 8.45314 7.47336e-20)
(52.3355 8.36208 -9.6915e-20)
(52.4826 8.30203 -1.54233e-17)
(52.5972 8.26396 9.67468e-18)
(52.6803 8.23293 0)
(52.7338 8.19853 0)
(52.7636 8.15232 -9.25882e-22)
(52.7692 8.08387 -2.96499e-18)
(52.7543 7.98068 0)
(52.6969 7.86147 2.32663e-18)
(52.6702 7.70156 0)
(52.605 7.47132 0)
(52.505 7.1896 1.14118e-18)
(52.3679 6.85339 -7.13066e-19)
(52.1914 6.46391 -8.89085e-19)
(51.974 6.02808 1.10154e-18)
(51.7147 5.55694 6.77404e-19)
(51.4097 5.06171 1.64881e-18)
(51.0534 4.54727 -1.97445e-18)
(50.6396 4.00992 0)
(50.1656 3.43286 5.84995e-23)
(49.585 2.87352 -3.06247e-18)
(48.8628 2.28987 3.02343e-18)
(51.3074 9.03534 -1.60979e-15)
(51.3072 9.03856 -1.18721e-19)
(51.3075 9.03822 1.17403e-15)
(51.3076 9.03807 -7.0832e-16)
(51.3078 9.03769 -8.54784e-16)
(51.3081 9.0371 -5.15578e-16)
(51.3086 9.03625 -3.10873e-16)
(51.3093 9.03507 0)
(51.3104 9.03344 2.25738e-16)
(51.3122 9.0312 -4.14681e-21)
(51.315 9.02814 -1.63416e-16)
(51.3191 9.02403 -2.39671e-20)
(51.3251 9.01855 0)
(51.3335 9.01134 3.43895e-20)
(51.3453 9.00197 -8.40562e-17)
(51.3611 8.98995 -9.97863e-17)
(51.382 8.97462 -5.89109e-17)
(51.4092 8.95506 6.90001e-17)
(51.4441 8.92996 0)
(51.4886 8.89772 9.12539e-17)
(51.5452 8.85572 -2.55487e-17)
(51.6178 8.8008 2.79801e-17)
(51.7124 8.72564 -5.93371e-17)
(51.8252 8.63211 -5.93935e-20)
(51.9758 8.52369 5.90577e-20)
(52.1657 8.40971 7.5058e-20)
(52.3372 8.31098 -2.47066e-17)
(52.4857 8.24545 1.55738e-17)
(52.6032 8.20404 -1.45768e-21)
(52.6889 8.17086 0)
(52.7437 8.13399 -2.36905e-19)
(52.7738 8.08455 -4.44657e-18)
(52.7788 8.01174 2.96826e-18)
(52.7619 7.90307 0)
(52.7015 7.77533 0)
(52.665 7.60555 -2.91531e-18)
(52.5871 7.36609 9.12752e-19)
(52.4697 7.07508 -1.14259e-18)
(52.3094 6.73166 6.94143e-23)
(52.1036 6.34005 1.77799e-18)
(51.8505 5.9097 -1.10126e-18)
(51.5508 5.45496 -1.35426e-18)
(51.2017 4.98958 -3.29466e-18)
(50.798 4.52018 4.43645e-18)
(50.3344 4.04513 4.6191e-18)
(49.81 3.55312 -5.2494e-18)
(49.19 3.09734 -3.59528e-19)
(48.439 2.67124 -3.77684e-19)
(51.3074 9.03525 0)
(51.3072 9.03852 0)
(51.3075 9.03818 -1.17425e-15)
(51.3076 9.03802 7.08504e-16)
(51.3078 9.03763 0)
(51.3081 9.03703 5.15784e-16)
(51.3086 9.03617 6.22017e-16)
(51.3093 9.03496 -2.28817e-20)
(51.3104 9.03328 0)
(51.3122 9.03097 0)
(51.3149 9.02782 -3.27028e-16)
(51.319 9.02356 0)
(51.325 9.01788 0)
(51.3334 9.01037 -1.4095e-16)
(51.3451 9.00058 -1.68138e-16)
(51.3609 8.98797 9.98572e-17)
(51.3817 8.97185 5.89018e-17)
(51.4088 8.95119 -1.37996e-16)
(51.4435 8.9246 -7.81582e-20)
(51.4879 8.89034 -4.55994e-17)
(51.5443 8.84558 5.10806e-17)
(51.6166 8.78686 0)
(51.7111 8.70643 2.97174e-17)
(51.8239 8.60575 0)
(51.975 8.48765 0)
(52.1646 8.36331 -7.53304e-20)
(52.3367 8.25647 3.69487e-17)
(52.486 8.18511 -1.54738e-17)
(52.6048 8.14007 -9.70167e-18)
(52.692 8.10472 0)
(52.747 8.06557 -7.35117e-18)
(52.7764 8.01324 -2.96693e-19)
(52.7794 7.93664 -6.31128e-18)
(52.7589 7.82347 -2.78845e-18)
(52.6941 7.68846 -1.16485e-18)
(52.6456 7.51087 6.56575e-18)
(52.5529 7.26578 -9.13746e-19)
(52.4158 6.97075 1.14416e-18)
(52.2302 6.62783 1.42967e-18)
(51.9932 6.24406 -2.66974e-18)
(51.7044 5.832 3.30674e-18)
(51.3672 5.40874 2.7112e-18)
(50.9802 4.9902 -4.12088e-18)
(50.5396 4.58425 -4.9349e-19)
(50.0418 4.19017 4.62439e-18)
(49.4896 3.7992 -4.92978e-18)
(48.8606 3.45933 3.60569e-19)
(48.1226 3.19697 3.79394e-19)
(51.3074 9.03516 -3.93289e-19)
(51.3072 9.03848 0)
(51.3075 9.03814 1.17499e-15)
(51.3076 9.03797 -1.73084e-19)
(51.3078 9.03758 1.04425e-19)
(51.3081 9.03696 -1.88963e-19)
(51.3085 9.03608 -6.22218e-16)
(51.3093 9.03483 7.50148e-16)
(51.3104 9.03311 0)
(51.3122 9.03073 -5.44024e-16)
(51.3149 9.02748 3.2719e-16)
(51.319 9.02307 2.39904e-20)
(51.3249 9.01716 -2.87752e-20)
(51.3333 9.00934 1.41036e-16)
(51.3449 8.9991 1.68208e-16)
(51.3606 8.98587 -9.98337e-17)
(51.3814 8.96889 -5.76297e-20)
(51.4083 8.94705 6.90642e-17)
(51.4429 8.91887 7.82457e-20)
(51.487 8.88245 0)
(51.5432 8.83474 -5.13647e-17)
(51.6152 8.77198 -5.5966e-17)
(51.7094 8.68599 0)
(51.822 8.57778 0)
(51.9731 8.44951 1.18956e-19)
(52.1624 8.31429 -1.51287e-19)
(52.335 8.19898 -2.46176e-17)
(52.4847 8.12155 1.54956e-17)
(52.6039 8.07267 1.5169e-19)
(52.692 8.03511 -3.79619e-19)
(52.7467 7.9939 8.07061e-18)
(52.7748 7.93901 -9.49984e-18)
(52.775 7.85916 5.57409e-18)
(52.7499 7.74245 7.44266e-18)
(52.6796 7.60155 0)
(52.6176 7.41835 -2.92107e-18)
(52.5087 7.17121 -9.14826e-19)
(52.3509 6.87744 3.43603e-18)
(52.1396 6.54252 -2.86187e-18)
(51.872 6.17586 1.78106e-18)
(51.5511 5.79318 0)
(51.1833 5.41348 6.78518e-19)
(50.7695 5.05424 1.80318e-22)
(50.3071 4.72299 -3.95405e-18)
(49.7947 4.41813 9.84536e-18)
(49.24 4.13043 1.35032e-21)
(48.6314 3.90204 -5.79062e-18)
(47.9418 3.78745 7.62731e-19)
(51.3074 9.03506 3.22267e-15)
(51.3072 9.03844 -1.94709e-15)
(51.3074 9.03809 1.17501e-15)
(51.3076 9.03792 1.41838e-15)
(51.3078 9.03752 5.466e-25)
(51.3081 9.03689 1.26027e-19)
(51.3085 9.03598 1.24508e-15)
(51.3092 9.03471 -7.505e-16)
(51.3104 9.03293 1.37965e-20)
(51.3121 9.03048 5.44303e-16)
(51.3148 9.02711 0)
(51.3189 9.02254 -3.93284e-16)
(51.3248 9.0164 -2.87895e-20)
(51.3331 9.00824 3.44554e-20)
(51.3447 8.99752 4.11013e-20)
(51.3604 8.98362 1.99965e-16)
(51.381 8.96572 5.76681e-20)
(51.4078 8.94263 -6.75845e-20)
(51.4422 8.91274 0)
(51.4861 8.87402 0)
(51.542 8.82319 0)
(51.6136 8.75615 5.62984e-17)
(51.7074 8.66429 -8.31825e-23)
(51.8196 8.54818 -3.08287e-17)
(51.9708 8.40929 0)
(52.1597 8.26273 0)
(52.3326 8.1386 0)
(52.4828 8.05486 1.55119e-17)
(52.6022 8.002 -1.9438e-17)
(52.6908 7.96222 1.25364e-17)
(52.745 7.91917 6.65017e-18)
(52.7713 7.86213 1.06969e-17)
(52.7682 7.77967 5.20498e-18)
(52.7378 7.6605 -3.72443e-18)
(52.6613 7.51536 0)
(52.5848 7.32908 0)
(52.4592 7.08376 -1.83129e-18)
(52.2806 6.79691 -2.29373e-18)
(52.0442 6.47726 1.43215e-18)
(51.7492 6.13652 -1.78305e-18)
(51.4023 5.79255 4.41865e-18)
(51.0137 5.46563 -1.08687e-17)
(50.5863 5.17348 7.43812e-18)
(50.119 4.92152 0)
(49.6117 4.70546 -9.29021e-18)
(49.0766 4.51338 1.05822e-17)
(48.5113 4.38159 7.26998e-19)
(47.8936 4.38685 -7.67255e-19)
(51.3074 9.03496 -6.44929e-15)
(51.3072 9.0384 1.94833e-15)
(51.3074 9.03804 -2.35125e-15)
(51.3076 9.03787 -1.41904e-15)
(51.3078 9.03746 0)
(51.3081 9.03681 6.30396e-20)
(51.3085 9.03588 6.22717e-16)
(51.3092 9.03457 0)
(51.3103 9.03274 -9.04574e-16)
(51.3121 9.03021 0)
(51.3148 9.02673 9.99507e-21)
(51.3188 9.02199 3.93492e-16)
(51.3247 9.01559 0)
(51.333 9.00707 0)
(51.3445 8.99584 4.11306e-20)
(51.3601 8.98122 -2.00271e-16)
(51.3806 8.96233 5.77312e-20)
(51.4072 8.9379 -1.38541e-16)
(51.4415 8.90619 0)
(51.4851 8.86502 0)
(51.5406 8.81087 0)
(51.6118 8.73932 -1.09924e-19)
(51.7052 8.64129 1.16967e-19)
(51.8171 8.51692 3.07993e-17)
(51.9681 8.36694 0)
(52.1567 8.20859 0)
(52.3299 8.07529 2.45042e-17)
(52.4804 7.98502 -3.08172e-17)
(52.6001 7.92806 2.82022e-21)
(52.6889 7.88609 -1.21676e-17)
(52.7425 7.84148 -7.60695e-18)
(52.7668 7.78275 9.51312e-18)
(52.76 7.69848 -5.95384e-18)
(52.7236 7.57809 0)
(52.6403 7.43065 0)
(52.5489 7.24413 7.31421e-18)
(52.4065 7.00478 -1.83261e-18)
(52.208 6.7307 -2.29522e-18)
(51.9487 6.43325 2.86568e-18)
(51.6313 6.12608 1.78424e-18)
(51.2664 5.82798 -4.42346e-18)
(50.8683 5.5596 5.44088e-18)
(50.4413 5.33732 0)
(49.9849 5.1631 0)
(49.4995 5.02855 -1.74614e-18)
(49.0002 4.91812 0)
(48.4927 4.86267 -1.46054e-18)
(47.9582 4.956 0)
(51.3074 9.03486 3.22546e-15)
(51.3072 9.03835 0)
(51.3074 9.03799 -2.35277e-15)
(51.3076 9.03782 -1.41945e-15)
(51.3078 9.03739 -1.71282e-15)
(51.3081 9.03673 -1.26133e-19)
(51.3085 9.03578 -2.49206e-15)
(51.3092 9.03443 -1.37535e-19)
(51.3103 9.03255 9.05038e-16)
(51.312 9.02993 3.32542e-20)
(51.3147 9.02633 6.55406e-16)
(51.3187 9.0214 0)
(51.3246 9.01474 0)
(51.3328 9.00583 0)
(51.3443 8.99405 -1.68609e-16)
(51.3598 8.97866 2.00386e-16)
(51.3802 8.95872 -1.18391e-16)
(51.4067 8.93286 1.38757e-16)
(51.4407 8.8992 -7.85259e-20)
(51.484 8.85542 0)
(51.5392 8.79776 1.00598e-19)
(51.6099 8.72145 -1.10208e-19)
(51.7028 8.61694 0)
(51.8142 8.48394 -6.17695e-17)
(51.965 8.32241 1.20199e-19)
(52.1533 8.15185 -1.52519e-19)
(52.3267 8.00904 -2.47375e-17)
(52.4777 7.91201 1.9625e-21)
(52.5976 7.85088 1.91683e-17)
(52.6865 7.80675 1.25547e-17)
(52.7392 7.76091 4.75631e-19)
(52.7613 7.70107 -1.01161e-17)
(52.7504 7.61588 0)
(52.7075 7.49567 0)
(52.617 7.34814 -4.67248e-18)
(52.5107 7.16453 -5.85757e-18)
(52.3523 6.93541 3.66995e-18)
(52.1357 6.67966 2.29581e-18)
(51.8572 6.41064 -6.29244e-22)
(51.5238 6.14293 -3.57197e-18)
(51.15 5.89515 4.42819e-18)
(50.7537 5.68719 9.22358e-22)
(50.3402 5.53282 -4.97425e-18)
(49.9078 5.42971 -9.93993e-19)
(49.4562 5.36485 1.16732e-18)
(49.0023 5.31917 -1.06554e-17)
(48.5588 5.31888 2.41925e-17)
(48.1084 5.47034 -1.23844e-17)
(51.3073 9.03475 -3.93878e-19)
(51.3072 9.03831 -3.89909e-15)
(51.3074 9.03794 4.70723e-15)
(51.3076 9.03776 1.42022e-15)
(51.3078 9.03733 1.71366e-15)
(51.3081 9.03665 1.2619e-19)
(51.3085 9.03567 1.24664e-15)
(51.3092 9.03428 9.17336e-20)
(51.3103 9.03234 -2.7632e-20)
(51.312 9.02964 3.32715e-20)
(51.3147 9.0259 -1.23398e-21)
(51.3186 9.02077 7.51441e-22)
(51.3244 9.01383 0)
(51.3326 9.00451 -2.82783e-16)
(51.344 8.99214 1.68697e-16)
(51.3594 8.97593 -2.00508e-16)
(51.3797 8.95487 1.18446e-16)
(51.406 8.92747 1.38838e-16)
(51.4398 8.89174 7.86002e-20)
(51.4829 8.84519 -3.40141e-23)
(51.5377 8.78381 -4.72935e-23)
(51.6078 8.70249 5.63037e-17)
(51.7001 8.59121 1.17521e-19)
(51.811 8.44921 6.19422e-17)
(51.9615 8.2757 0)
(52.1494 8.09249 -1.52713e-19)
(52.323 7.93985 1.93613e-19)
(52.4744 7.83585 -1.5801e-17)
(52.5947 7.77048 3.04555e-19)
(52.6835 7.72429 -1.92768e-21)
(52.7354 7.67759 1.5231e-17)
(52.7549 7.61729 -1.01206e-17)
(52.7396 7.53222 7.45178e-19)
(52.6899 7.41375 -8.39578e-18)
(52.592 7.26854 5.84586e-18)
(52.4714 7.09112 0)
(52.2985 6.87646 0)
(52.0665 6.64401 2.29616e-18)
(51.7737 6.40848 -2.86928e-18)
(51.4314 6.18395 8.83739e-22)
(51.058 5.98798 -1.10801e-17)
(50.6741 5.83865 5.45416e-18)
(50.2844 5.74639 -1.66073e-18)
(49.8851 5.70451 9.96049e-19)
(49.4739 5.69548 9.35884e-18)
(49.0687 5.69756 -1.06836e-17)
(48.6894 5.73346 0)
(48.317 5.91827 -1.24201e-17)
(51.3073 9.03463 -6.45591e-15)
(51.3072 9.03826 -3.90095e-15)
(51.3074 9.03789 -2.35447e-15)
(51.3076 9.0377 2.84184e-15)
(51.3078 9.03726 -2.09293e-19)
(51.308 9.03656 -2.06843e-15)
(51.3085 9.03555 0)
(51.3091 9.03412 1.50359e-15)
(51.3102 9.03212 9.06029e-16)
(51.3119 9.02932 5.45406e-16)
(51.3146 9.02545 -1.31228e-15)
(51.3185 9.02012 -6.01519e-21)
(51.3243 9.01286 0)
(51.3324 9.0031 5.6604e-16)
(51.3438 8.9901 3.37741e-16)
(51.3591 8.97302 2.00731e-16)
(51.3792 8.95076 -5.78961e-20)
(51.4053 8.92172 -1.38994e-16)
(51.4389 8.88379 0)
(51.4816 8.8343 8.99716e-20)
(51.536 8.769 -1.00988e-19)
(51.6056 8.68241 -5.65278e-17)
(51.6973 8.56406 -1.17792e-19)
(51.8075 8.41271 1.21236e-19)
(51.9576 8.2268 -3.11007e-17)
(52.145 8.03055 -3.88949e-17)
(52.3187 7.86777 2.44151e-17)
(52.4707 7.75661 6.23e-17)
(52.5913 7.68695 6.09161e-19)
(52.68 7.63882 -1.21923e-17)
(52.7309 7.59168 -1.61956e-17)
(52.7477 7.53167 1.72898e-21)
(52.7279 7.44789 1.19282e-17)
(52.6711 7.33284 7.46944e-18)
(52.5658 7.19253 -2.33974e-18)
(52.4322 7.02462 1.17299e-17)
(52.247 6.82835 3.67269e-18)
(52.0033 6.62328 -4.59569e-18)
(51.7018 6.42472 2.87095e-18)
(51.358 6.24485 5.36664e-18)
(50.9934 6.09936 -1.55244e-17)
(50.6303 6.00389 1.09181e-17)
(50.2716 5.96546 -1.32992e-17)
(49.9102 5.97361 3.29099e-17)
(49.5412 6.00669 -1.87481e-17)
(49.1836 6.04127 0)
(48.8645 6.09809 -2.50535e-17)
(48.5606 6.29758 2.56465e-17)
(51.3073 9.03451 6.45845e-15)
(51.3072 9.03821 1.17083e-14)
(51.3074 9.03783 -2.35634e-15)
(51.3076 9.03764 -5.68547e-15)
(51.3078 9.03719 0)
(51.308 9.03647 2.06939e-15)
(51.3084 9.03543 0)
(51.3091 9.03396 -1.50434e-15)
(51.3102 9.03189 -9.06444e-16)
(51.3119 9.029 -5.45774e-16)
(51.3145 9.02497 1.31306e-15)
(51.3184 9.01942 3.94438e-16)
(51.3241 9.01184 -4.7321e-16)
(51.3322 9.00161 -2.83228e-16)
(51.3435 8.98794 -3.37971e-16)
(51.3587 8.96993 -2.0091e-16)
(51.3786 8.94638 0)
(51.4046 8.9156 0)
(51.4379 8.87532 -7.88018e-20)
(51.4803 8.82272 -9.21975e-17)
(51.5342 8.75329 1.03567e-16)
(51.6031 8.66118 0)
(51.6941 8.53547 0)
(51.8036 8.37444 0)
(51.9532 8.17572 6.18968e-17)
(52.1401 7.96607 7.88751e-17)
(52.3139 7.79285 -2.48368e-17)
(52.4664 7.67435 -3.11785e-17)
(52.5874 7.6004 0)
(52.6759 7.55049 0)
(52.7258 7.50337 -9.52986e-19)
(52.7399 7.44449 1.07309e-17)
(52.7154 7.36328 -1.19379e-17)
(52.6517 7.25344 1.86835e-18)
(52.5393 7.12066 -7.02372e-18)
(52.3945 6.96551 -5.8681e-18)
(52.1999 6.79095 -7.91868e-22)
(51.9489 6.61631 -4.59524e-18)
(51.6445 6.45646 0)
(51.306 6.32057 1.4314e-17)
(50.9573 6.22192 -1.10936e-17)
(50.6208 6.17354 0)
(50.2968 6.17963 0)
(49.9743 6.22685 -9.98312e-19)
(49.6458 6.28982 0)
(49.3315 6.34438 -1.33964e-18)
(49.0669 6.41066 1.47509e-18)
(48.8204 6.61195 -7.77228e-19)
(51.3073 9.03438 -6.46104e-15)
(51.3073 9.03816 5.54378e-22)
(51.3074 9.03778 -2.35679e-15)
(51.3076 9.03758 5.68872e-15)
(51.3078 9.03711 -1.71588e-15)
(51.308 9.03638 -2.52731e-19)
(51.3084 9.03531 0)
(51.3091 9.03379 9.18692e-20)
(51.3102 9.03165 -1.10703e-19)
(51.3118 9.02865 0)
(51.3144 9.02447 -6.00316e-22)
(51.3183 9.01868 -3.94698e-16)
(51.324 9.01076 4.73538e-16)
(51.332 9.00003 -5.66885e-16)
(51.3432 8.98565 0)
(51.3583 8.96664 0)
(51.3781 8.94172 0)
(51.4038 8.90908 0)
(51.4369 8.86632 7.89045e-20)
(51.4789 8.81043 9.23367e-17)
(51.5323 8.73666 -2.0749e-16)
(51.6005 8.63878 -1.11014e-19)
(51.6907 8.50543 1.18321e-19)
(51.7993 8.3344 -6.24201e-17)
(51.9483 8.12252 -3.11564e-17)
(52.1345 7.89911 -7.87204e-17)
(52.3085 7.7152 3.88317e-19)
(52.4615 7.58921 -4.8774e-19)
(52.5831 7.51096 1.95242e-17)
(52.6714 7.45949 0)
(52.7203 7.4129 0)
(52.7316 7.35608 -1.07353e-17)
(52.7024 7.27881 1.49318e-18)
(52.6322 7.17604 -1.86958e-18)
(52.5134 7.05338 1.63997e-17)
(52.3596 6.914 -5.86833e-18)
(52.1591 6.76371 -3.67206e-18)
(51.9058 6.62129 4.59323e-18)
(51.6039 6.50018 -1.43531e-17)
(51.2766 6.40577 -7.15782e-18)
(50.9488 6.34871 2.21866e-18)
(50.6421 6.3398 2.45824e-17)
(50.3535 6.38127 -1.33085e-17)
(50.0678 6.4579 1.79721e-17)
(49.7755 6.54087 -1.87756e-17)
(49.4988 6.60601 -1.87618e-17)
(49.2818 6.67389 2.35793e-17)
(49.0826 6.86902 0)
(51.3073 9.03425 1.29266e-14)
(51.3073 9.03811 -7.81044e-15)
(51.3074 9.03772 4.71451e-15)
(51.3076 9.03751 1.38575e-22)
(51.3078 9.03703 1.71669e-15)
(51.308 9.03628 5.05705e-19)
(51.3084 9.03518 -3.04965e-19)
(51.3091 9.03361 1.50598e-15)
(51.3101 9.0314 1.1076e-19)
(51.3118 9.02829 -1.33382e-19)
(51.3143 9.02394 -6.57351e-16)
(51.3182 9.01791 3.61605e-20)
(51.3238 9.00962 -4.73846e-16)
(51.3318 8.99836 -1.67983e-20)
(51.3429 8.98322 3.38589e-16)
(51.3578 8.96314 4.91232e-20)
(51.3775 8.93677 -5.80729e-20)
(51.403 8.90216 0)
(51.4357 8.85677 7.90083e-20)
(51.4774 8.79741 -3.58782e-23)
(51.5302 8.71909 1.0382e-16)
(51.5976 8.6152 0)
(51.6869 8.47394 -6.06901e-17)
(51.7946 8.29261 1.24901e-16)
(51.9429 8.06724 2.44182e-19)
(52.1283 7.82979 3.94343e-17)
(52.3025 7.63495 -2.48919e-17)
(52.4561 7.50133 4.87721e-19)
(52.5784 7.41883 -1.22383e-18)
(52.6665 7.36604 7.63494e-19)
(52.7145 7.32055 9.54072e-19)
(52.723 7.26677 1.79042e-17)
(52.6894 7.1949 -1.19505e-17)
(52.6131 7.10107 -1.87077e-18)
(52.4891 6.99101 -7.03206e-18)
(52.3289 6.86999 1.17356e-17)
(52.1265 6.74565 3.66877e-18)
(51.8758 6.63591 0)
(51.5813 6.55209 7.08593e-22)
(51.2696 6.49533 3.57791e-18)
(50.9658 6.47375 0)
(50.6895 6.49673 -2.7308e-18)
(50.4345 6.56556 1.6628e-18)
(50.1819 6.66394 -1.99669e-18)
(49.9201 6.75967 0)
(49.6747 6.82885 -1.33917e-18)
(49.4984 6.89361 0)
(49.3374 7.07839 0)
(51.3073 9.03411 -6.46636e-15)
(51.3073 9.03805 7.81583e-15)
(51.3074 9.03765 -4.7178e-15)
(51.3076 9.03745 2.8468e-15)
(51.3077 9.03695 0)
(51.308 9.03618 0)
(51.3084 9.03504 2.49954e-15)
(51.309 9.03342 -1.50677e-15)
(51.3101 9.03113 0)
(51.3117 9.02791 -6.67275e-20)
(51.3142 9.02338 8.02886e-20)
(51.3181 9.01709 -7.90421e-16)
(51.3236 9.00842 4.74199e-16)
(51.3315 8.99659 5.67744e-16)
(51.3425 8.98064 -1.3523e-21)
(51.3573 8.95943 0)
(51.3768 8.93151 0)
(51.4021 8.89482 6.81709e-20)
(51.4345 8.84664 -7.91378e-20)
(51.4757 8.78365 -1.85492e-16)
(51.5279 8.70056 1.01676e-19)
(51.5945 8.59043 0)
(51.6828 8.44101 1.21401e-16)
(51.7893 8.24913 -6.24754e-17)
(51.9368 8.00998 0)
(52.1215 7.75824 0)
(52.2957 7.55227 2.53099e-17)
(52.45 7.41092 -3.1739e-17)
(52.5731 7.32424 -1.95512e-17)
(52.6612 7.27041 0)
(52.7084 7.22663 0)
(52.7144 7.17693 -1.69054e-21)
(52.6768 7.11195 1.49496e-17)
(52.5952 7.0289 -3.74437e-18)
(52.4674 6.93371 9.37612e-18)
(52.3038 6.8331 -1.25042e-21)
(52.1035 6.73544 -1.09943e-17)
(51.8602 6.65755 4.58239e-18)
(51.5769 6.60842 -8.59703e-18)
(51.2839 6.58468 3.21695e-17)
(51.0051 6.59237 -1.77319e-17)
(50.7579 6.64043 0)
(50.5333 6.73017 -1.66184e-18)
(50.3089 6.84478 0)
(50.0716 6.94839 3.9845e-17)
(49.8514 7.01726 -4.2758e-17)
(49.7093 7.07618 0)
(49.5786 7.24893 0)
(51.3073 9.03397 0)
(51.3073 9.038 -3.90947e-15)
(51.3074 9.03759 -4.64836e-22)
(51.3076 9.03738 -5.69668e-15)
(51.3077 9.03687 -3.4371e-15)
(51.308 9.03607 2.07392e-15)
(51.3084 9.0349 -2.50083e-15)
(51.309 9.03323 -1.8403e-19)
(51.31 9.03086 1.81706e-15)
(51.3116 9.02751 -1.09399e-15)
(51.3141 9.0228 -3.45521e-24)
(51.3179 9.01623 7.90849e-16)
(51.3234 9.00714 2.8962e-20)
(51.3313 8.99471 5.6814e-16)
(51.3421 8.97791 -3.39134e-16)
(51.3568 8.95551 -4.03237e-16)
(51.3761 8.92595 2.90973e-20)
(51.4011 8.88705 0)
(51.4332 8.83594 0)
(51.474 8.76913 1.85769e-16)
(51.5255 8.68107 -1.01845e-19)
(51.5912 8.56447 -2.23285e-19)
(51.6784 8.40668 -6.07073e-17)
(51.7836 8.20402 -6.28583e-17)
(51.9301 7.95086 2.45098e-19)
(52.1139 7.68462 -3.09284e-19)
(52.2882 7.46738 -2.49437e-17)
(52.4433 7.31822 3.03011e-17)
(52.5674 7.22744 1.22307e-18)
(52.6556 7.17292 1.06979e-17)
(52.7023 7.13149 1.71956e-17)
(52.706 7.08695 -1.19511e-17)
(52.6649 7.03035 2.99198e-18)
(52.5793 6.95981 3.74611e-18)
(52.4492 6.88146 -1.40686e-17)
(52.2851 6.80271 -1.17202e-17)
(52.0912 6.73156 7.31296e-18)
(51.8593 6.68358 1.82782e-17)
(51.59 6.66573 0)
(51.3171 6.67013 -3.56999e-18)
(51.0629 6.70131 1.99219e-17)
(50.8422 6.76882 -1.90685e-17)
(50.644 6.87468 -2.82084e-17)
(50.4428 7.00184 3.18696e-17)
(50.2243 7.11033 -2.34044e-18)
(50.0243 7.17578 0)
(49.9102 7.2271 1.45536e-18)
(49.8026 7.38788 5.05151e-17)
(51.3073 9.03382 0)
(51.3073 9.03794 0)
(51.3074 9.03752 4.7211e-15)
(51.3076 9.0373 2.85025e-15)
(51.3077 9.03678 3.4388e-15)
(51.308 9.03596 -1.49657e-22)
(51.3083 9.03475 0)
(51.309 9.03302 0)
(51.31 9.03057 -1.81776e-15)
(51.3116 9.02709 6.61758e-22)
(51.314 9.02219 -1.317e-15)
(51.3178 9.01532 -9.66177e-20)
(51.3232 9.0058 -4.7488e-16)
(51.331 8.99274 -1.57544e-21)
(51.3417 8.97502 0)
(51.3563 8.95135 8.38924e-21)
(51.3753 8.92007 2.18395e-20)
(51.4001 8.87883 -3.41741e-20)
(51.4319 8.82465 -7.93191e-20)
(51.4721 8.75384 1.81583e-19)
(51.5229 8.66063 -1.02011e-19)
(51.5876 8.53736 1.14681e-16)
(51.6735 8.37099 -6.11844e-17)
(51.7774 8.15737 -2.42922e-19)
(51.9228 7.89003 -3.12211e-17)
(52.1055 7.60915 -3.96257e-17)
(52.2799 7.38053 -7.77356e-19)
(52.4359 7.22351 -1.46702e-17)
(52.5611 7.12875 0)
(52.6499 7.0739 -2.4468e-17)
(52.6961 7.03549 -1.33846e-17)
(52.698 6.99722 -2.39199e-18)
(52.6542 6.95044 1.1973e-17)
(52.566 6.894 -3.74752e-18)
(52.4355 6.83409 -4.68685e-18)
(52.274 6.77801 -1.17039e-17)
(52.0899 6.73246 -7.28886e-18)
(51.8726 6.71165 4.54816e-18)
(51.6193 6.72115 1.14093e-17)
(51.3667 6.74895 -2.85003e-17)
(51.1355 6.7986 1.54666e-17)
(50.9382 6.88118 1.9035e-17)
(50.7621 6.99984 -2.15345e-17)
(50.5796 7.13728 -3.18166e-17)
(50.3748 7.24903 3.97015e-17)
(50.1906 7.30864 1.32617e-18)
(50.0983 7.35103 -1.44372e-18)
(50.0072 7.50113 -5.01179e-17)
(51.3073 9.03367 -6.47707e-15)
(51.3073 9.03788 1.91073e-18)
(51.3074 9.03745 -1.15331e-18)
(51.3076 9.03723 -8.55291e-15)
(51.3077 9.03669 3.44054e-15)
(51.3079 9.03584 -2.07531e-15)
(51.3083 9.0346 -3.24912e-24)
(51.3089 9.03281 -1.84238e-19)
(51.3099 9.03027 -2.22024e-19)
(51.3115 9.02665 6.57628e-22)
(51.3139 9.02154 2.63584e-15)
(51.3176 9.01437 9.66769e-20)
(51.323 9.00439 1.42556e-15)
(51.3307 8.99066 3.31627e-20)
(51.3413 8.97198 -6.06136e-24)
(51.3557 8.94698 8.0789e-16)
(51.3745 8.91386 -2.38827e-16)
(51.399 8.87018 0)
(51.4304 8.81278 -3.97106e-20)
(51.4701 8.7378 4.54703e-20)
(51.5201 8.63925 -1.04602e-16)
(51.5837 8.50911 -3.25051e-21)
(51.6683 8.334 6.11857e-17)
(51.7706 8.10929 6.31313e-17)
(51.9147 7.82767 6.30802e-17)
(52.0962 7.53209 5.89085e-17)
(52.2708 7.29201 5.07715e-17)
(52.4278 7.12712 3.13233e-17)
(52.5544 7.02853 1.22373e-18)
(52.644 6.97372 1.07117e-17)
(52.6902 6.93905 -1.9126e-18)
(52.691 6.90812 4.78623e-18)
(52.6454 6.87252 -1.19835e-17)
(52.5561 6.83155 -3.74929e-18)
(52.4271 6.79123 9.3734e-18)
(52.2709 6.75805 1.27019e-21)
(52.0991 6.73679 0)
(51.8981 6.74026 -4.51191e-18)
(51.6625 6.77277 0)
(51.4299 6.81948 -1.42144e-17)
(51.2195 6.88339 -9.98544e-23)
(51.0423 6.9777 4.07098e-17)
(50.8845 7.1069 -2.64549e-17)
(50.7166 7.25329 -3.17546e-17)
(50.5213 7.3676 -2.33143e-18)
(50.3496 7.41902 4.09283e-17)
(50.2728 7.45119 0)
(50.1914 7.59381 4.81476e-17)
(51.3073 9.03351 1.29552e-14)
(51.3073 9.03782 0)
(51.3074 9.03738 -4.7263e-15)
(51.3076 9.03715 8.55722e-15)
(51.3077 9.0366 -3.4423e-15)
(51.3079 9.03572 2.0764e-15)
(51.3083 9.03444 3.05766e-19)
(51.3089 9.03259 -1.5099e-15)
(51.3099 9.02995 -4.80686e-24)
(51.3114 9.0262 1.0955e-15)
(51.3138 9.02087 -1.3186e-15)
(51.3174 9.01337 0)
(51.3227 9.00291 -9.51024e-16)
(51.3303 8.98847 -5.69659e-16)
(51.3408 8.96878 6.79946e-16)
(51.355 8.94237 -8.08611e-16)
(51.3736 8.90733 1.79615e-21)
(51.3978 8.86108 -4.28044e-21)
(51.4288 8.80031 2.4852e-20)
(51.4679 8.72102 1.86496e-16)
(51.5171 8.61696 2.09479e-16)
(51.5795 8.47979 -1.14857e-16)
(51.6626 8.29581 6.1178e-17)
(51.7631 8.05992 -6.3504e-17)
(51.9058 7.76398 -3.13639e-17)
(52.086 7.4537 -1.61267e-21)
(52.2607 7.20216 -2.50209e-17)
(52.419 7.02942 -1.46956e-17)
(52.5472 6.92715 -1.22548e-18)
(52.638 6.87281 -1.5307e-18)
(52.6848 6.84257 1.91468e-18)
(52.6851 6.82001 0)
(52.639 6.79681 -1.49852e-17)
(52.5502 6.77243 1.12498e-17)
(52.4247 6.75238 0)
(52.2761 6.74176 5.82829e-18)
(52.1166 6.74358 -7.1882e-18)
(51.9317 6.76879 8.93817e-18)
(51.7167 6.8198 0)
(51.5037 6.88099 -1.41715e-17)
(51.3121 6.95566 2.19938e-17)
(51.1519 7.05923 7.81526e-22)
(51.009 7.19744 -3.30068e-18)
(50.8521 7.35193 0)
(50.6628 7.46849 -3.72134e-17)
(50.5016 7.50865 4.20775e-17)
(50.436 7.52867 -4.53544e-17)
(50.3584 7.66845 4.77924e-17)
(51.3073 9.03334 -6.4805e-15)
(51.3073 9.03775 0)
(51.3074 9.03731 9.45736e-15)
(51.3075 9.03707 -8.5616e-15)
(51.3077 9.0365 0)
(51.3079 9.0356 -1.45744e-22)
(51.3083 9.03427 -2.50618e-15)
(51.3088 9.03236 3.02222e-15)
(51.3098 9.02963 -2.22287e-19)
(51.3113 9.02572 -1.09656e-15)
(51.3137 9.02017 -3.22174e-19)
(51.3172 9.01232 -1.93616e-19)
(51.3225 9.00136 2.32387e-19)
(51.33 8.98617 0)
(51.3403 8.96542 -6.8069e-16)
(51.3543 8.93753 4.04829e-16)
(51.3727 8.90048 2.39273e-16)
(51.3965 8.85154 6.85821e-20)
(51.4271 8.78727 1.63092e-16)
(51.4656 8.70351 -3.73457e-16)
(51.5139 8.59379 -1.04872e-16)
(51.575 8.44945 -5.62444e-20)
(51.6564 8.25651 -6.11707e-17)
(51.755 8.00942 6.31375e-17)
(51.896 7.69921 4.946e-19)
(52.0749 7.3743 -6.23801e-19)
(52.2497 7.11136 0)
(52.4094 6.93082 0)
(52.5396 6.82506 -1.83874e-17)
(52.6321 6.77158 -1.22575e-17)
(52.68 6.74646 -8.98235e-22)
(52.6808 6.73324 -8.40739e-22)
(52.6355 6.72349 -2.99708e-18)
(52.5491 6.71649 -1.45572e-21)
(52.429 6.7169 0)
(52.2894 6.72813 -5.81427e-18)
(52.1413 6.75174 2.14869e-17)
(51.9721 6.79622 -4.45568e-18)
(51.779 6.86154 0)
(51.5855 6.93323 1.41243e-17)
(51.4106 7.01591 -1.4383e-21)
(51.2648 7.12705 -1.89181e-17)
(51.1338 7.27342 3.29293e-18)
(50.9848 7.43571 -1.97579e-18)
(50.7985 7.55444 2.32071e-18)
(50.6473 7.5797 -2.61723e-18)
(50.592 7.5852 0)
(50.515 7.72599 -1.48747e-18)
(51.3073 9.03317 7.91431e-19)
(51.3073 9.03768 -1.91358e-18)
(51.3074 9.03723 -4.72995e-15)
(51.3075 9.03698 5.71069e-15)
(51.3077 9.0364 0)
(51.3079 9.03547 -6.23661e-15)
(51.3082 9.0341 2.50787e-15)
(51.3088 9.03212 -3.8861e-22)
(51.3097 9.02928 -6.67234e-19)
(51.3112 9.02522 1.09749e-15)
(51.3135 9.01943 1.61182e-19)
(51.317 9.01123 7.93422e-16)
(51.3222 8.99973 9.52275e-16)
(51.3296 8.98377 -5.70123e-16)
(51.3398 8.9619 6.81004e-16)
(51.3536 8.93246 4.0539e-16)
(51.3717 8.89331 -2.65658e-23)
(51.3952 8.84157 -1.37313e-19)
(51.4253 8.77367 -1.63208e-16)
(51.4631 8.6853 -1.10936e-19)
(51.5104 8.56978 2.56581e-20)
(51.5702 8.41817 5.62956e-20)
(51.6498 8.21624 6.1455e-17)
(51.7462 7.95799 0)