/*--------------------------------*- C++ -*----------------------------------*\
  =========                 |
  \\      /  F ield         | OpenFOAM: The Open Source CFD Toolbox
   \\    /   O peration     | Website:  https://openfoam.org
    \\  /    A nd           | Version:  10
     \\/     M anipulation  |
\*---------------------------------------------------------------------------*/
FoamFile
{
    format      ascii;
    class       volScalarField;
    location    "5";
    object      nut;
}
// * * * * * * * * * * * * * * * * * * * * * * * * * * * * * * * * * * * * * //

dimensions      [0 2 -1 0 0 0 0];

internalField   nonuniform List<scalar> 
38016
(
1.83443e-06
1.83443e-06
1.83443e-06
1.83443e-06
1.83443e-06
1.83443e-06
1.83443e-06
1.83443e-06
1.83443e-06
1.83444e-06
1.83444e-06
1.83444e-06
1.83444e-06
1.83445e-06
1.83445e-06
1.83446e-06
1.83445e-06
1.83448e-06
1.83451e-06
1.83456e-06
1.83461e-06
1.83515e-06
1.83432e-06
1.83549e-06
1.83472e-06
1.83557e-06
1.83509e-06
1.83542e-06
1.83535e-06
1.83524e-06
1.83506e-06
1.83479e-06
1.83453e-06
1.83481e-06
1.8353e-06
1.83587e-06
1.83657e-06
1.83741e-06
1.83833e-06
1.83938e-06
1.84056e-06
1.84174e-06
1.84304e-06
1.84439e-06
1.84582e-06
1.84726e-06
1.84938e-06
1.85027e-06
1.83443e-06
1.83443e-06
1.83443e-06
1.83443e-06
1.83443e-06
1.83443e-06
1.83443e-06
1.83444e-06
1.83444e-06
1.83444e-06
1.83444e-06
1.83444e-06
1.83444e-06
1.83444e-06
1.83444e-06
1.83445e-06
1.83445e-06
1.83446e-06
1.83448e-06
1.83451e-06
1.83454e-06
1.83489e-06
1.83432e-06
1.83506e-06
1.83456e-06
1.83523e-06
1.83497e-06
1.83524e-06
1.83524e-06
1.83517e-06
1.83502e-06
1.83479e-06
1.83452e-06
1.83475e-06
1.83524e-06
1.83582e-06
1.83654e-06
1.83738e-06
1.83833e-06
1.83941e-06
1.84057e-06
1.84175e-06
1.84299e-06
1.84425e-06
1.84558e-06
1.84686e-06
1.84891e-06
1.84951e-06
1.83443e-06
1.83443e-06
1.83443e-06
1.83443e-06
1.83443e-06
1.83443e-06
1.83443e-06
1.83443e-06
1.83443e-06
1.83444e-06
1.83444e-06
1.83444e-06
1.83444e-06
1.83444e-06
1.83444e-06
1.83446e-06
1.83445e-06
1.83447e-06
1.83449e-06
1.83452e-06
1.83456e-06
1.83489e-06
1.83438e-06
1.83507e-06
1.83464e-06
1.83526e-06
1.83501e-06
1.83526e-06
1.83525e-06
1.83518e-06
1.83504e-06
1.83483e-06
1.83457e-06
1.8347e-06
1.83511e-06
1.83561e-06
1.83622e-06
1.83692e-06
1.83771e-06
1.83859e-06
1.83951e-06
1.84041e-06
1.84133e-06
1.84223e-06
1.84315e-06
1.84401e-06
1.84551e-06
1.8458e-06
1.83443e-06
1.83443e-06
1.83443e-06
1.83443e-06
1.83443e-06
1.83443e-06
1.83443e-06
1.83444e-06
1.83444e-06
1.83444e-06
1.83444e-06
1.83444e-06
1.83444e-06
1.83444e-06
1.83444e-06
1.83446e-06
1.83445e-06
1.83447e-06
1.83449e-06
1.83452e-06
1.83455e-06
1.83484e-06
1.83441e-06
1.83501e-06
1.83465e-06
1.8352e-06
1.83499e-06
1.83521e-06
1.83521e-06
1.83515e-06
1.83502e-06
1.83483e-06
1.83459e-06
1.8346e-06
1.83493e-06
1.83535e-06
1.83585e-06
1.83642e-06
1.83706e-06
1.83775e-06
1.83843e-06
1.83908e-06
1.83969e-06
1.84026e-06
1.84083e-06
1.84134e-06
1.84241e-06
1.84245e-06
1.83443e-06
1.83443e-06
1.83443e-06
1.83443e-06
1.83443e-06
1.83443e-06
1.83443e-06
1.83443e-06
1.83443e-06
1.83444e-06
1.83444e-06
1.83444e-06
1.83444e-06
1.83444e-06
1.83444e-06
1.83446e-06
1.83445e-06
1.83447e-06
1.83449e-06
1.83453e-06
1.83456e-06
1.83482e-06
1.83445e-06
1.83499e-06
1.8347e-06
1.8352e-06
1.83503e-06
1.83523e-06
1.83523e-06
1.83518e-06
1.83506e-06
1.83488e-06
1.83465e-06
1.83458e-06
1.83485e-06
1.83521e-06
1.83566e-06
1.83615e-06
1.83669e-06
1.83725e-06
1.83777e-06
1.83824e-06
1.83862e-06
1.83894e-06
1.83924e-06
1.83958e-06
1.84035e-06
1.84032e-06
1.83443e-06
1.83443e-06
1.83443e-06
1.83443e-06
1.83443e-06
1.83443e-06
1.83443e-06
1.83444e-06
1.83444e-06
1.83444e-06
1.83444e-06
1.83444e-06
1.83444e-06
1.83445e-06
1.83445e-06
1.83446e-06
1.83446e-06
1.83447e-06
1.8345e-06
1.83453e-06
1.83457e-06
1.83479e-06
1.8345e-06
1.83496e-06
1.83476e-06
1.8352e-06
1.83509e-06
1.83526e-06
1.83527e-06
1.83521e-06
1.83509e-06
1.83491e-06
1.83468e-06
1.83455e-06
1.83476e-06
1.8351e-06
1.8355e-06
1.83595e-06
1.83643e-06
1.8369e-06
1.83732e-06
1.83765e-06
1.83787e-06
1.838e-06
1.83818e-06
1.83837e-06
1.83904e-06
1.83896e-06
1.83443e-06
1.83443e-06
1.83443e-06
1.83443e-06
1.83443e-06
1.83443e-06
1.83443e-06
1.83443e-06
1.83443e-06
1.83444e-06
1.83444e-06
1.83444e-06
1.83444e-06
1.83445e-06
1.83445e-06
1.83446e-06
1.83446e-06
1.83448e-06
1.8345e-06
1.83454e-06
1.83458e-06
1.83479e-06
1.83454e-06
1.83497e-06
1.83483e-06
1.83524e-06
1.83517e-06
1.83533e-06
1.83534e-06
1.83529e-06
1.83516e-06
1.83499e-06
1.83476e-06
1.83457e-06
1.83472e-06
1.83503e-06
1.8354e-06
1.83581e-06
1.83623e-06
1.83662e-06
1.83694e-06
1.83713e-06
1.83719e-06
1.83722e-06
1.83727e-06
1.83741e-06
1.83798e-06
1.8379e-06
1.83443e-06
1.83443e-06
1.83443e-06
1.83443e-06
1.83443e-06
1.83443e-06
1.83443e-06
1.83444e-06
1.83444e-06
1.83444e-06
1.83444e-06
1.83444e-06
1.83444e-06
1.83445e-06
1.83445e-06
1.83446e-06
1.83446e-06
1.83448e-06
1.83451e-06
1.83455e-06
1.83459e-06
1.83476e-06
1.8346e-06
1.83496e-06
1.8349e-06
1.83526e-06
1.83524e-06
1.83538e-06
1.83539e-06
1.83534e-06
1.8352e-06
1.83503e-06
1.8348e-06
1.83459e-06
1.83464e-06
1.83491e-06
1.83525e-06
1.83562e-06
1.83598e-06
1.83628e-06
1.8365e-06
1.83657e-06
1.83653e-06
1.83647e-06
1.8365e-06
1.83657e-06
1.83709e-06
1.83701e-06
1.83443e-06
1.83443e-06
1.83443e-06
1.83443e-06
1.83443e-06
1.83443e-06
1.83443e-06
1.83443e-06
1.83443e-06
1.83444e-06
1.83444e-06
1.83444e-06
1.83444e-06
1.83445e-06
1.83445e-06
1.83446e-06
1.83446e-06
1.83449e-06
1.83452e-06
1.83456e-06
1.8346e-06
1.83478e-06
1.83464e-06
1.83499e-06
1.83496e-06
1.83532e-06
1.83532e-06
1.83545e-06
1.83547e-06
1.83542e-06
1.83529e-06
1.83512e-06
1.83488e-06
1.83466e-06
1.83461e-06
1.83483e-06
1.83513e-06
1.83545e-06
1.83574e-06
1.83596e-06
1.83607e-06
1.83603e-06
1.83595e-06
1.83586e-06
1.83594e-06
1.83595e-06
1.83642e-06
1.83627e-06
1.83443e-06
1.83443e-06
1.83443e-06
1.83443e-06
1.83443e-06
1.83443e-06
1.83444e-06
1.83444e-06
1.83444e-06
1.83444e-06
1.83444e-06
1.83444e-06
1.83444e-06
1.83445e-06
1.83445e-06
1.83447e-06
1.83447e-06
1.83449e-06
1.83452e-06
1.83456e-06
1.83461e-06
1.83476e-06
1.83469e-06
1.83499e-06
1.83503e-06
1.83534e-06
1.8354e-06
1.83551e-06
1.83553e-06
1.83548e-06
1.83534e-06
1.83517e-06
1.83494e-06
1.83472e-06
1.83457e-06
1.83473e-06
1.83498e-06
1.83524e-06
1.83547e-06
1.83562e-06
1.83565e-06
1.83557e-06
1.83552e-06
1.83555e-06
1.83566e-06
1.83581e-06
1.83591e-06
1.8357e-06
1.83443e-06
1.83443e-06
1.83443e-06
1.83443e-06
1.83443e-06
1.83443e-06
1.83443e-06
1.83443e-06
1.83444e-06
1.83444e-06
1.83444e-06
1.83444e-06
1.83444e-06
1.83445e-06
1.83445e-06
1.83447e-06
1.83447e-06
1.8345e-06
1.83453e-06
1.83458e-06
1.83463e-06
1.83478e-06
1.83472e-06
1.83502e-06
1.83508e-06
1.83541e-06
1.83548e-06
1.8356e-06
1.83562e-06
1.83557e-06
1.83544e-06
1.83527e-06
1.83504e-06
1.83483e-06
1.83463e-06
1.83469e-06
1.83488e-06
1.83508e-06
1.83525e-06
1.83534e-06
1.83533e-06
1.83529e-06
1.83541e-06
1.83566e-06
1.83595e-06
1.83618e-06
1.83574e-06
1.83543e-06
1.83443e-06
1.83443e-06
1.83443e-06
1.83443e-06
1.83443e-06
1.83443e-06
1.83444e-06
1.83444e-06
1.83444e-06
1.83444e-06
1.83444e-06
1.83444e-06
1.83444e-06
1.83445e-06
1.83446e-06
1.83447e-06
1.83448e-06
1.8345e-06
1.83454e-06
1.83458e-06
1.83464e-06
1.83476e-06
1.83478e-06
1.83503e-06
1.83515e-06
1.83544e-06
1.83556e-06
1.83567e-06
1.83569e-06
1.83564e-06
1.83551e-06
1.83534e-06
1.83512e-06
1.83492e-06
1.83469e-06
1.83466e-06
1.83478e-06
1.83494e-06
1.83507e-06
1.83514e-06
1.8352e-06
1.83529e-06
1.83575e-06
1.83617e-06
1.83661e-06
1.83668e-06
1.83629e-06
1.83539e-06
1.83443e-06
1.83443e-06
1.83443e-06
1.83443e-06
1.83443e-06
1.83443e-06
1.83443e-06
1.83443e-06
1.83444e-06
1.83444e-06
1.83444e-06
1.83444e-06
1.83445e-06
1.83445e-06
1.83446e-06
1.83447e-06
1.83448e-06
1.83451e-06
1.83455e-06
1.8346e-06
1.83466e-06
1.83479e-06
1.83481e-06
1.83507e-06
1.83521e-06
1.83552e-06
1.83564e-06
1.83576e-06
1.83578e-06
1.83574e-06
1.83561e-06
1.83545e-06
1.83523e-06
1.83505e-06
1.83483e-06
1.83476e-06
1.8348e-06
1.83491e-06
1.83504e-06
1.83513e-06
1.83536e-06
1.83571e-06
1.83626e-06
1.83678e-06
1.83728e-06
1.83734e-06
1.83683e-06
1.83564e-06
1.83443e-06
1.83443e-06
1.83443e-06
1.83443e-06
1.83443e-06
1.83443e-06
1.83444e-06
1.83444e-06
1.83444e-06
1.83444e-06
1.83444e-06
1.83444e-06
1.83445e-06
1.83445e-06
1.83446e-06
1.83448e-06
1.83449e-06
1.83452e-06
1.83455e-06
1.83461e-06
1.83467e-06
1.83479e-06
1.83486e-06
1.83509e-06
1.83528e-06
1.83557e-06
1.83573e-06
1.83584e-06
1.83586e-06
1.83582e-06
1.83569e-06
1.83553e-06
1.83532e-06
1.83516e-06
1.83497e-06
1.83488e-06
1.8349e-06
1.83501e-06
1.83517e-06
1.83537e-06
1.83568e-06
1.83617e-06
1.8368e-06
1.83751e-06
1.838e-06
1.83811e-06
1.83735e-06
1.83564e-06
1.83443e-06
1.83443e-06
1.83443e-06
1.83443e-06
1.83443e-06
1.83443e-06
1.83443e-06
1.83443e-06
1.83444e-06
1.83444e-06
1.83444e-06
1.83444e-06
1.83445e-06
1.83446e-06
1.83446e-06
1.83448e-06
1.83449e-06
1.83452e-06
1.83456e-06
1.83463e-06
1.83469e-06
1.83482e-06
1.8349e-06
1.83514e-06
1.83534e-06
1.83565e-06
1.83582e-06
1.83594e-06
1.83597e-06
1.83593e-06
1.83581e-06
1.83566e-06
1.83546e-06
1.83531e-06
1.83516e-06
1.83508e-06
1.83511e-06
1.83524e-06
1.83542e-06
1.83568e-06
1.83607e-06
1.83668e-06
1.83744e-06
1.83825e-06
1.83876e-06
1.83886e-06
1.8377e-06
1.83547e-06
1.83443e-06
1.83443e-06
1.83443e-06
1.83443e-06
1.83443e-06
1.83444e-06
1.83444e-06
1.83444e-06
1.83444e-06
1.83444e-06
1.83444e-06
1.83444e-06
1.83445e-06
1.83446e-06
1.83446e-06
1.83448e-06
1.8345e-06
1.83453e-06
1.83457e-06
1.83464e-06
1.83471e-06
1.83482e-06
1.83495e-06
1.83517e-06
1.83542e-06
1.83571e-06
1.83591e-06
1.83602e-06
1.83606e-06
1.83602e-06
1.8359e-06
1.83575e-06
1.83557e-06
1.83544e-06
1.83533e-06
1.83528e-06
1.83532e-06
1.83547e-06
1.83569e-06
1.836e-06
1.83653e-06
1.83724e-06
1.83813e-06
1.83891e-06
1.83956e-06
1.83946e-06
1.83837e-06
1.83559e-06
1.83443e-06
1.83443e-06
1.83443e-06
1.83443e-06
1.83443e-06
1.83443e-06
1.83443e-06
1.83443e-06
1.83444e-06
1.83444e-06
1.83444e-06
1.83444e-06
1.83445e-06
1.83446e-06
1.83447e-06
1.83449e-06
1.8345e-06
1.83454e-06
1.83459e-06
1.83466e-06
1.83474e-06
1.83486e-06
1.83498e-06
1.83523e-06
1.83548e-06
1.8358e-06
1.836e-06
1.83613e-06
1.83617e-06
1.83614e-06
1.83602e-06
1.83589e-06
1.83572e-06
1.83562e-06
1.83554e-06
1.83552e-06
1.83559e-06
1.83576e-06
1.836e-06
1.83641e-06
1.83702e-06
1.8378e-06
1.83876e-06
1.83961e-06
1.84028e-06
1.84013e-06
1.83893e-06
1.83563e-06
1.83443e-06
1.83443e-06
1.83443e-06
1.83443e-06
1.83443e-06
1.83444e-06
1.83444e-06
1.83444e-06
1.83444e-06
1.83444e-06
1.83444e-06
1.83445e-06
1.83445e-06
1.83446e-06
1.83447e-06
1.83449e-06
1.83451e-06
1.83455e-06
1.8346e-06
1.83467e-06
1.83475e-06
1.83487e-06
1.83504e-06
1.83526e-06
1.83556e-06
1.83586e-06
1.8361e-06
1.83623e-06
1.83627e-06
1.83623e-06
1.83612e-06
1.83599e-06
1.83585e-06
1.83576e-06
1.83572e-06
1.83574e-06
1.83585e-06
1.83606e-06
1.83636e-06
1.83682e-06
1.83751e-06
1.83836e-06
1.83938e-06
1.84031e-06
1.84098e-06
1.84078e-06
1.83946e-06
1.83563e-06
1.83443e-06
1.83443e-06
1.83443e-06
1.83443e-06
1.83443e-06
1.83443e-06
1.83443e-06
1.83444e-06
1.83444e-06
1.83444e-06
1.83444e-06
1.83445e-06
1.83445e-06
1.83446e-06
1.83447e-06
1.8345e-06
1.83452e-06
1.83456e-06
1.83461e-06
1.83469e-06
1.83478e-06
1.83492e-06
1.83508e-06
1.83532e-06
1.83563e-06
1.83596e-06
1.83619e-06
1.83634e-06
1.83639e-06
1.83636e-06
1.83625e-06
1.83614e-06
1.83601e-06
1.83595e-06
1.83594e-06
1.83599e-06
1.83614e-06
1.83637e-06
1.83671e-06
1.83723e-06
1.83799e-06
1.83892e-06
1.83999e-06
1.84103e-06
1.84167e-06
1.84143e-06
1.83999e-06
1.83557e-06
1.83443e-06
1.83443e-06
1.83443e-06
1.83443e-06
1.83443e-06
1.83444e-06
1.83444e-06
1.83444e-06
1.83444e-06
1.83444e-06
1.83444e-06
1.83445e-06
1.83445e-06
1.83447e-06
1.83448e-06
1.8345e-06
1.83453e-06
1.83457e-06
1.83463e-06
1.83471e-06
1.8348e-06
1.83493e-06
1.83513e-06
1.83536e-06
1.83571e-06
1.83603e-06
1.8363e-06
1.83644e-06
1.83649e-06
1.83646e-06
1.83636e-06
1.83626e-06
1.83615e-06
1.83611e-06
1.83613e-06
1.83621e-06
1.83639e-06
1.83667e-06
1.83704e-06
1.83765e-06
1.83844e-06
1.83951e-06
1.84058e-06
1.84181e-06
1.84234e-06
1.84213e-06
1.84048e-06
1.83535e-06
1.83443e-06
1.83443e-06
1.83443e-06
1.83443e-06
1.83443e-06
1.83443e-06
1.83443e-06
1.83444e-06
1.83444e-06
1.83444e-06
1.83444e-06
1.83445e-06
1.83446e-06
1.83447e-06
1.83448e-06
1.83451e-06
1.83453e-06
1.83458e-06
1.83464e-06
1.83473e-06
1.83484e-06
1.83498e-06
1.83518e-06
1.83543e-06
1.83578e-06
1.83613e-06
1.8364e-06
1.83656e-06
1.83662e-06
1.83659e-06
1.8365e-06
1.83641e-06
1.83633e-06
1.83631e-06
1.83635e-06
1.83646e-06
1.83667e-06
1.83695e-06
1.83739e-06
1.83805e-06
1.83891e-06
1.84007e-06
1.84124e-06
1.84255e-06
1.84308e-06
1.8429e-06
1.84083e-06
1.835e-06
1.83444e-06
1.83444e-06
1.83443e-06
1.83443e-06
1.83444e-06
1.83444e-06
1.83444e-06
1.83444e-06
1.83444e-06
1.83444e-06
1.83444e-06
1.83445e-06
1.83446e-06
1.83447e-06
1.83448e-06
1.83451e-06
1.83454e-06
1.83459e-06
1.83466e-06
1.83475e-06
1.83486e-06
1.835e-06
1.83523e-06
1.83548e-06
1.83586e-06
1.83621e-06
1.8365e-06
1.83666e-06
1.83672e-06
1.8367e-06
1.83661e-06
1.83654e-06
1.83647e-06
1.83647e-06
1.83653e-06
1.83668e-06
1.83691e-06
1.83723e-06
1.83771e-06
1.83845e-06
1.83938e-06
1.84063e-06
1.84196e-06
1.84331e-06
1.84402e-06
1.84361e-06
1.84159e-06
1.83509e-06
1.83443e-06
1.83443e-06
1.83443e-06
1.83443e-06
1.83443e-06
1.83443e-06
1.83443e-06
1.83444e-06
1.83444e-06
1.83444e-06
1.83444e-06
1.83445e-06
1.83446e-06
1.83447e-06
1.83449e-06
1.83452e-06
1.83455e-06
1.8346e-06
1.83468e-06
1.83478e-06
1.8349e-06
1.83505e-06
1.83528e-06
1.83555e-06
1.83594e-06
1.8363e-06
1.8366e-06
1.83678e-06
1.83685e-06
1.83684e-06
1.83676e-06
1.8367e-06
1.83665e-06
1.83667e-06
1.83675e-06
1.83691e-06
1.83716e-06
1.83752e-06
1.83804e-06
1.83885e-06
1.83988e-06
1.84118e-06
1.84275e-06
1.84405e-06
1.84493e-06
1.8444e-06
1.84174e-06
1.83445e-06
1.83444e-06
1.83444e-06
1.83443e-06
1.83443e-06
1.83444e-06
1.83444e-06
1.83444e-06
1.83444e-06
1.83444e-06
1.83444e-06
1.83445e-06
1.83445e-06
1.83446e-06
1.83448e-06
1.83449e-06
1.83452e-06
1.83456e-06
1.83461e-06
1.83469e-06
1.8348e-06
1.83492e-06
1.83508e-06
1.83534e-06
1.8356e-06
1.83602e-06
1.83638e-06
1.83669e-06
1.83688e-06
1.83695e-06
1.83694e-06
1.83687e-06
1.83682e-06
1.8368e-06
1.83683e-06
1.83693e-06
1.83712e-06
1.83739e-06
1.83777e-06
1.8384e-06
1.8392e-06
1.84042e-06
1.84169e-06
1.84357e-06
1.84464e-06
1.84606e-06
1.8448e-06
1.8425e-06
1.83487e-06
1.83443e-06
1.83443e-06
1.83443e-06
1.83443e-06
1.83443e-06
1.83443e-06
1.83444e-06
1.83444e-06
1.83444e-06
1.83444e-06
1.83445e-06
1.83445e-06
1.83446e-06
1.83448e-06
1.8345e-06
1.83453e-06
1.83457e-06
1.83463e-06
1.83471e-06
1.83483e-06
1.83496e-06
1.83513e-06
1.83539e-06
1.83567e-06
1.83609e-06
1.83648e-06
1.83679e-06
1.83699e-06
1.83707e-06
1.83707e-06
1.83702e-06
1.83698e-06
1.83697e-06
1.83701e-06
1.83712e-06
1.83733e-06
1.83761e-06
1.83805e-06
1.83872e-06
1.83959e-06
1.84091e-06
1.84226e-06
1.84426e-06
1.8454e-06
1.84689e-06
1.84543e-06
1.84304e-06
1.83473e-06
1.83444e-06
1.83444e-06
1.83444e-06
1.83443e-06
1.83444e-06
1.83444e-06
1.83444e-06
1.83444e-06
1.83444e-06
1.83444e-06
1.83445e-06
1.83445e-06
1.83446e-06
1.83448e-06
1.8345e-06
1.83454e-06
1.83458e-06
1.83464e-06
1.83473e-06
1.83485e-06
1.83499e-06
1.83516e-06
1.83544e-06
1.83572e-06
1.83616e-06
1.83655e-06
1.83688e-06
1.83708e-06
1.83716e-06
1.83717e-06
1.83713e-06
1.8371e-06
1.8371e-06
1.83715e-06
1.83729e-06
1.83751e-06
1.83783e-06
1.83829e-06
1.83903e-06
1.83997e-06
1.84137e-06
1.84286e-06
1.84496e-06
1.84622e-06
1.84776e-06
1.84607e-06
1.84366e-06
1.83473e-06
1.83443e-06
1.83443e-06
1.83443e-06
1.83443e-06
1.83443e-06
1.83443e-06
1.83444e-06
1.83444e-06
1.83444e-06
1.83444e-06
1.83445e-06
1.83445e-06
1.83447e-06
1.83448e-06
1.83451e-06
1.83454e-06
1.83459e-06
1.83466e-06
1.83475e-06
1.83488e-06
1.83503e-06
1.83521e-06
1.83549e-06
1.83579e-06
1.83623e-06
1.83664e-06
1.83697e-06
1.83718e-06
1.83727e-06
1.83729e-06
1.83726e-06
1.83724e-06
1.83725e-06
1.83731e-06
1.83746e-06
1.83768e-06
1.83803e-06
1.83854e-06
1.83934e-06
1.84037e-06
1.84184e-06
1.84352e-06
1.84563e-06
1.84717e-06
1.84858e-06
1.84694e-06
1.84446e-06
1.83507e-06
1.83444e-06
1.83444e-06
1.83444e-06
1.83443e-06
1.83444e-06
1.83444e-06
1.83444e-06
1.83444e-06
1.83444e-06
1.83444e-06
1.83445e-06
1.83446e-06
1.83447e-06
1.83449e-06
1.83451e-06
1.83455e-06
1.8346e-06
1.83467e-06
1.83477e-06
1.8349e-06
1.83506e-06
1.83525e-06
1.83555e-06
1.83584e-06
1.8363e-06
1.8367e-06
1.83704e-06
1.83725e-06
1.83735e-06
1.83737e-06
1.83735e-06
1.83733e-06
1.83735e-06
1.83743e-06
1.83759e-06
1.83784e-06
1.83821e-06
1.83881e-06
1.83963e-06
1.84083e-06
1.84232e-06
1.84429e-06
1.84642e-06
1.84836e-06
1.8496e-06
1.84827e-06
1.84546e-06
1.83518e-06
1.83443e-06
1.83443e-06
1.83443e-06
1.83443e-06
1.83443e-06
1.83443e-06
1.83444e-06
1.83444e-06
1.83444e-06
1.83444e-06
1.83445e-06
1.83446e-06
1.83447e-06
1.83449e-06
1.83452e-06
1.83456e-06
1.83461e-06
1.83469e-06
1.83479e-06
1.83494e-06
1.8351e-06
1.8353e-06
1.83559e-06
1.8359e-06
1.83635e-06
1.83677e-06
1.83711e-06
1.83733e-06
1.83743e-06
1.83747e-06
1.83745e-06
1.83745e-06
1.83747e-06
1.83756e-06
1.83772e-06
1.83798e-06
1.83839e-06
1.83903e-06
1.83995e-06
1.84122e-06
1.84294e-06
1.84501e-06
1.84749e-06
1.84954e-06
1.85056e-06
1.84999e-06
1.84482e-06
1.83333e-06
1.83444e-06
1.83444e-06
1.83444e-06
1.83443e-06
1.83444e-06
1.83444e-06
1.83444e-06
1.83444e-06
1.83444e-06
1.83444e-06
1.83445e-06
1.83446e-06
1.83447e-06
1.83449e-06
1.83452e-06
1.83457e-06
1.83463e-06
1.8347e-06
1.83481e-06
1.83496e-06
1.83513e-06
1.83533e-06
1.83564e-06
1.83595e-06
1.83641e-06
1.83683e-06
1.83717e-06
1.83739e-06
1.83748e-06
1.83753e-06
1.83751e-06
1.83751e-06
1.83755e-06
1.83764e-06
1.83782e-06
1.8381e-06
1.83854e-06
1.83923e-06
1.84024e-06
1.84163e-06
1.84353e-06
1.84579e-06
1.8485e-06
1.85066e-06
1.85225e-06
1.85071e-06
1.84707e-06
1.83494e-06
1.83443e-06
1.83443e-06
1.83443e-06
1.83443e-06
1.83443e-06
1.83443e-06
1.83444e-06
1.83444e-06
1.83444e-06
1.83444e-06
1.83445e-06
1.83446e-06
1.83447e-06
1.8345e-06
1.83453e-06
1.83457e-06
1.83464e-06
1.83472e-06
1.83484e-06
1.83499e-06
1.83517e-06
1.83538e-06
1.83569e-06
1.836e-06
1.83645e-06
1.83688e-06
1.83721e-06
1.83744e-06
1.83754e-06
1.83759e-06
1.83758e-06
1.83759e-06
1.83762e-06
1.83772e-06
1.8379e-06
1.83821e-06
1.83868e-06
1.83942e-06
1.84052e-06
1.84201e-06
1.84409e-06
1.8465e-06
1.84947e-06
1.8518e-06
1.85296e-06
1.85225e-06
1.84629e-06
1.8337e-06
1.83444e-06
1.83444e-06
1.83444e-06
1.83444e-06
1.83444e-06
1.83444e-06
1.83444e-06
1.83444e-06
1.83444e-06
1.83445e-06
1.83445e-06
1.83446e-06
1.83448e-06
1.8345e-06
1.83453e-06
1.83458e-06
1.83465e-06
1.83474e-06
1.83485e-06
1.83502e-06
1.8352e-06
1.83541e-06
1.83572e-06
1.83604e-06
1.83649e-06
1.83691e-06
1.83724e-06
1.83747e-06
1.83756e-06
1.83761e-06
1.8376e-06
1.83762e-06
1.83766e-06
1.83776e-06
1.83797e-06
1.83828e-06
1.83881e-06
1.8396e-06
1.84078e-06
1.84238e-06
1.84461e-06
1.84721e-06
1.85033e-06
1.85269e-06
1.85431e-06
1.85241e-06
1.84786e-06
1.83517e-06
1.83443e-06
1.83443e-06
1.83443e-06
1.83443e-06
1.83443e-06
1.83443e-06
1.83444e-06
1.83444e-06
1.83444e-06
1.83445e-06
1.83445e-06
1.83446e-06
1.83448e-06
1.8345e-06
1.83454e-06
1.83459e-06
1.83466e-06
1.83475e-06
1.83488e-06
1.83505e-06
1.83523e-06
1.83546e-06
1.83576e-06
1.83608e-06
1.83651e-06
1.83693e-06
1.83726e-06
1.83748e-06
1.83757e-06
1.83764e-06
1.83763e-06
1.83764e-06
1.83769e-06
1.8378e-06
1.838e-06
1.83836e-06
1.83892e-06
1.83976e-06
1.84104e-06
1.84274e-06
1.84519e-06
1.84787e-06
1.85131e-06
1.85354e-06
1.85555e-06
1.85295e-06
1.84847e-06
1.83614e-06
1.83444e-06
1.83444e-06
1.83444e-06
1.83444e-06
1.83444e-06
1.83444e-06
1.83444e-06
1.83444e-06
1.83444e-06
1.83445e-06
1.83445e-06
1.83446e-06
1.83448e-06
1.83451e-06
1.83454e-06
1.8346e-06
1.83467e-06
1.83477e-06
1.83489e-06
1.83507e-06
1.83525e-06
1.83548e-06
1.83579e-06
1.8361e-06
1.83652e-06
1.83693e-06
1.83725e-06
1.83747e-06
1.83755e-06
1.83761e-06
1.8376e-06
1.83762e-06
1.83767e-06
1.83778e-06
1.83802e-06
1.83839e-06
1.839e-06
1.8399e-06
1.8413e-06
1.84312e-06
1.84576e-06
1.8486e-06
1.85231e-06
1.85451e-06
1.85687e-06
1.85346e-06
1.84925e-06
1.83677e-06
1.83443e-06
1.83443e-06
1.83443e-06
1.83443e-06
1.83443e-06
1.83444e-06
1.83444e-06
1.83444e-06
1.83444e-06
1.83445e-06
1.83445e-06
1.83446e-06
1.83448e-06
1.83451e-06
1.83455e-06
1.8346e-06
1.83468e-06
1.83478e-06
1.83491e-06
1.83509e-06
1.83529e-06
1.83552e-06
1.83581e-06
1.83613e-06
1.83652e-06
1.83692e-06
1.83723e-06
1.83744e-06
1.83752e-06
1.83758e-06
1.83758e-06
1.83759e-06
1.83764e-06
1.83776e-06
1.83802e-06
1.83843e-06
1.83907e-06
1.84004e-06
1.84153e-06
1.84349e-06
1.84631e-06
1.84939e-06
1.85311e-06
1.85562e-06
1.85784e-06
1.8542e-06
1.85021e-06
1.83779e-06
1.83444e-06
1.83444e-06
1.83444e-06
1.83444e-06
1.83444e-06
1.83444e-06
1.83444e-06
1.83444e-06
1.83444e-06
1.83445e-06
1.83446e-06
1.83447e-06
1.83449e-06
1.83451e-06
1.83455e-06
1.83461e-06
1.83469e-06
1.83479e-06
1.83493e-06
1.83511e-06
1.8353e-06
1.83553e-06
1.83582e-06
1.83613e-06
1.83651e-06
1.83689e-06
1.83718e-06
1.83738e-06
1.83745e-06
1.8375e-06
1.8375e-06
1.83751e-06
1.83756e-06
1.8377e-06
1.83799e-06
1.83844e-06
1.83913e-06
1.84016e-06
1.84178e-06
1.84387e-06
1.84685e-06
1.85013e-06
1.85407e-06
1.8567e-06
1.859e-06
1.85528e-06
1.85103e-06
1.83921e-06
1.83443e-06
1.83443e-06
1.83443e-06
1.83443e-06
1.83443e-06
1.83444e-06
1.83444e-06
1.83444e-06
1.83444e-06
1.83445e-06
1.83445e-06
1.83447e-06
1.83449e-06
1.83452e-06
1.83456e-06
1.83462e-06
1.8347e-06
1.8348e-06
1.83495e-06
1.83513e-06
1.83533e-06
1.83556e-06
1.83583e-06
1.83613e-06
1.83648e-06
1.83684e-06
1.83711e-06
1.83731e-06
1.83737e-06
1.83741e-06
1.83741e-06
1.83742e-06
1.83747e-06
1.83761e-06
1.83795e-06
1.83841e-06
1.83918e-06
1.84026e-06
1.84204e-06
1.84412e-06
1.84748e-06
1.85055e-06
1.85508e-06
1.85722e-06
1.85938e-06
1.85645e-06
1.84872e-06
1.83719e-06
1.83444e-06
1.83444e-06
1.83444e-06
1.83444e-06
1.83444e-06
1.83444e-06
1.83444e-06
1.83444e-06
1.83444e-06
1.83445e-06
1.83446e-06
1.83447e-06
1.83449e-06
1.83452e-06
1.83456e-06
1.83462e-06
1.83471e-06
1.83481e-06
1.83496e-06
1.83514e-06
1.83533e-06
1.83556e-06
1.83583e-06
1.83611e-06
1.83644e-06
1.83678e-06
1.83702e-06
1.83719e-06
1.83725e-06
1.83727e-06
1.83727e-06
1.83728e-06
1.83733e-06
1.83751e-06
1.83786e-06
1.83837e-06
1.83922e-06
1.84032e-06
1.84232e-06
1.84439e-06
1.84816e-06
1.851e-06
1.85622e-06
1.85745e-06
1.8614e-06
1.85555e-06
1.84997e-06
1.83946e-06
1.83443e-06
1.83443e-06
1.83443e-06
1.83443e-06
1.83443e-06
1.83444e-06
1.83444e-06
1.83444e-06
1.83444e-06
1.83445e-06
1.83446e-06
1.83447e-06
1.83449e-06
1.83452e-06
1.83457e-06
1.83463e-06
1.83472e-06
1.83482e-06
1.83497e-06
1.83516e-06
1.83535e-06
1.83558e-06
1.83582e-06
1.83609e-06
1.83637e-06
1.83669e-06
1.83691e-06
1.83706e-06
1.83711e-06
1.83711e-06
1.83711e-06
1.83712e-06
1.83717e-06
1.83736e-06
1.83777e-06
1.83829e-06
1.83924e-06
1.84039e-06
1.84261e-06
1.84465e-06
1.84888e-06
1.85147e-06
1.85739e-06
1.8581e-06
1.86144e-06
1.85768e-06
1.84658e-06
1.83639e-06
1.83444e-06
1.83444e-06
1.83444e-06
1.83444e-06
1.83444e-06
1.83444e-06
1.83444e-06
1.83444e-06
1.83444e-06
1.83445e-06
1.83446e-06
1.83447e-06
1.83449e-06
1.83452e-06
1.83457e-06
1.83463e-06
1.83472e-06
1.83483e-06
1.83497e-06
1.83516e-06
1.83535e-06
1.83557e-06
1.8358e-06
1.83605e-06
1.8363e-06
1.83658e-06
1.83677e-06
1.83689e-06
1.83692e-06
1.83691e-06
1.8369e-06
1.83691e-06
1.83698e-06
1.8372e-06
1.83763e-06
1.8382e-06
1.83926e-06
1.84047e-06
1.84293e-06
1.8451e-06
1.84973e-06
1.85238e-06
1.85886e-06
1.85909e-06
1.8643e-06
1.85696e-06
1.84924e-06
1.83952e-06
1.83443e-06
1.83443e-06
1.83443e-06
1.83443e-06
1.83443e-06
1.83444e-06
1.83444e-06
1.83444e-06
1.83444e-06
1.83445e-06
1.83446e-06
1.83447e-06
1.83449e-06
1.83452e-06
1.83457e-06
1.83463e-06
1.83473e-06
1.83483e-06
1.83498e-06
1.83517e-06
1.83535e-06
1.83556e-06
1.83578e-06
1.836e-06
1.83621e-06
1.83645e-06
1.8366e-06
1.8367e-06
1.83672e-06
1.83669e-06
1.83668e-06
1.83668e-06
1.83676e-06
1.83701e-06
1.83748e-06
1.83809e-06
1.83925e-06
1.84058e-06
1.84325e-06
1.84565e-06
1.8506e-06
1.85376e-06
1.86037e-06
1.86169e-06
1.86458e-06
1.86153e-06
1.84796e-06
1.83722e-06
1.83444e-06
1.83444e-06
1.83444e-06
1.83444e-06
1.83444e-06
1.83444e-06
1.83444e-06
1.83444e-06
1.83444e-06
1.83445e-06
1.83446e-06
1.83447e-06
1.83449e-06
1.83453e-06
1.83457e-06
1.83463e-06
1.83473e-06
1.83484e-06
1.83498e-06
1.83516e-06
1.83534e-06
1.83554e-06
1.83574e-06
1.83593e-06
1.8361e-06
1.8363e-06
1.83642e-06
1.83648e-06
1.83648e-06
1.83642e-06
1.83641e-06
1.83641e-06
1.83651e-06
1.8368e-06
1.83728e-06
1.83796e-06
1.8392e-06
1.84073e-06
1.84345e-06
1.84639e-06
1.85119e-06
1.85537e-06
1.86129e-06
1.86374e-06
1.86641e-06
1.86145e-06
1.85213e-06
1.84057e-06
1.83443e-06
1.83443e-06
1.83443e-06
1.83443e-06
1.83444e-06
1.83444e-06
1.83444e-06
1.83444e-06
1.83444e-06
1.83445e-06
1.83446e-06
1.83447e-06
1.83449e-06
1.83453e-06
1.83458e-06
1.83464e-06
1.83473e-06
1.83483e-06
1.83498e-06
1.83516e-06
1.83533e-06
1.83552e-06
1.83569e-06
1.83586e-06
1.83597e-06
1.83613e-06
1.83621e-06
1.83623e-06
1.83622e-06
1.83614e-06
1.83612e-06
1.83613e-06
1.83624e-06
1.83654e-06
1.83708e-06
1.83779e-06
1.8391e-06
1.84089e-06
1.84359e-06
1.84714e-06
1.85174e-06
1.85703e-06
1.86218e-06
1.86644e-06
1.86633e-06
1.86511e-06
1.85214e-06
1.83901e-06
1.83443e-06
1.83444e-06
1.83444e-06
1.83444e-06
1.83444e-06
1.83444e-06
1.83444e-06
1.83444e-06
1.83444e-06
1.83445e-06
1.83446e-06
1.83447e-06
1.8345e-06
1.83453e-06
1.83458e-06
1.83464e-06
1.83473e-06
1.83483e-06
1.83497e-06
1.83514e-06
1.8353e-06
1.83548e-06
1.83564e-06
1.83577e-06
1.83584e-06
1.83595e-06
1.83598e-06
1.83595e-06
1.83592e-06
1.83582e-06
1.8358e-06
1.8358e-06
1.83593e-06
1.83627e-06
1.83678e-06
1.83769e-06
1.8389e-06
1.84113e-06
1.84359e-06
1.84799e-06
1.85208e-06
1.85869e-06
1.86261e-06
1.86861e-06
1.86712e-06
1.86535e-06
1.85508e-06
1.84094e-06
1.83443e-06
1.83443e-06
1.83443e-06
1.83443e-06
1.83444e-06
1.83444e-06
1.83444e-06
1.83444e-06
1.83444e-06
1.83445e-06
1.83446e-06
1.83447e-06
1.83449e-06
1.83453e-06
1.83457e-06
1.83463e-06
1.83472e-06
1.83483e-06
1.83496e-06
1.83513e-06
1.83528e-06
1.83545e-06
1.83557e-06
1.83567e-06
1.83569e-06
1.83574e-06
1.83573e-06
1.83566e-06
1.8356e-06
1.8355e-06
1.83547e-06
1.83547e-06
1.83561e-06
1.83596e-06
1.8365e-06
1.83747e-06
1.83882e-06
1.84115e-06
1.84392e-06
1.8484e-06
1.85302e-06
1.85951e-06
1.8642e-06
1.86958e-06
1.86896e-06
1.86609e-06
1.85547e-06
1.8415e-06
1.83443e-06
1.83444e-06
1.83444e-06
1.83444e-06
1.83444e-06
1.83444e-06
1.83444e-06
1.83444e-06
1.83445e-06
1.83445e-06
1.83446e-06
1.83447e-06
1.8345e-06
1.83453e-06
1.83457e-06
1.83463e-06
1.83472e-06
1.83482e-06
1.83494e-06
1.83511e-06
1.83524e-06
1.83539e-06
1.8355e-06
1.83556e-06
1.83553e-06
1.83553e-06
1.83547e-06
1.83535e-06
1.83528e-06
1.83517e-06
1.83514e-06
1.83515e-06
1.83528e-06
1.83563e-06
1.8362e-06
1.83723e-06
1.83871e-06
1.84115e-06
1.84421e-06
1.8488e-06
1.85389e-06
1.86037e-06
1.86563e-06
1.87064e-06
1.87057e-06
1.86682e-06
1.85587e-06
1.84191e-06
1.83443e-06
1.83443e-06
1.83444e-06
1.83443e-06
1.83444e-06
1.83444e-06
1.83444e-06
1.83444e-06
1.83444e-06
1.83445e-06
1.83446e-06
1.83447e-06
1.83449e-06
1.83453e-06
1.83457e-06
1.83463e-06
1.83471e-06
1.83481e-06
1.83493e-06
1.83508e-06
1.83521e-06
1.83534e-06
1.83542e-06
1.83545e-06
1.83535e-06
1.83531e-06
1.83521e-06
1.83506e-06
1.835e-06
1.83491e-06
1.8349e-06
1.83491e-06
1.835e-06
1.8353e-06
1.83587e-06
1.83696e-06
1.83858e-06
1.84114e-06
1.84447e-06
1.84921e-06
1.85473e-06
1.86128e-06
1.86709e-06
1.87178e-06
1.87218e-06
1.86763e-06
1.85631e-06
1.84226e-06
1.83443e-06
1.83444e-06
1.83444e-06
1.83444e-06
1.83444e-06
1.83444e-06
1.83444e-06
1.83444e-06
1.83445e-06
1.83445e-06
1.83446e-06
1.83447e-06
1.83449e-06
1.83453e-06
1.83457e-06
1.83462e-06
1.8347e-06
1.83479e-06
1.8349e-06
1.83505e-06
1.83516e-06
1.83527e-06
1.83533e-06
1.83532e-06
1.83518e-06
1.83508e-06
1.83497e-06
1.83482e-06
1.83482e-06
1.83481e-06
1.83487e-06
1.83487e-06
1.83487e-06
1.83502e-06
1.83554e-06
1.83665e-06
1.83841e-06
1.84109e-06
1.8447e-06
1.8496e-06
1.8555e-06
1.86212e-06
1.86843e-06
1.87285e-06
1.87365e-06
1.8684e-06
1.8567e-06
1.84257e-06
1.83443e-06
1.83443e-06
1.83444e-06
1.83443e-06
1.83444e-06
1.83444e-06
1.83444e-06
1.83444e-06
1.83444e-06
1.83445e-06
1.83446e-06
1.83447e-06
1.83449e-06
1.83452e-06
1.83456e-06
1.83461e-06
1.83469e-06
1.83478e-06
1.83488e-06
1.83502e-06
1.83511e-06
1.83521e-06
1.83523e-06
1.83519e-06
1.835e-06
1.83487e-06
1.83478e-06
1.83473e-06
1.83492e-06
1.83507e-06
1.8352e-06
1.83519e-06
1.83507e-06
1.83492e-06
1.83522e-06
1.83632e-06
1.8382e-06
1.84101e-06
1.84488e-06
1.84995e-06
1.85625e-06
1.86294e-06
1.86975e-06
1.87389e-06
1.87513e-06
1.86914e-06
1.85709e-06
1.84278e-06
1.83443e-06
1.83444e-06
1.83444e-06
1.83444e-06
1.83444e-06
1.83444e-06
1.83444e-06
1.83444e-06
1.83445e-06
1.83445e-06
1.83446e-06
1.83447e-06
1.83449e-06
1.83452e-06
1.83456e-06
1.83461e-06
1.83468e-06
1.83476e-06
1.83485e-06
1.83497e-06
1.83506e-06
1.83513e-06
1.83513e-06
1.83505e-06
1.83483e-06
1.83471e-06
1.83476e-06
1.83494e-06
1.83528e-06
1.83551e-06
1.83568e-06
1.83569e-06
1.83553e-06
1.83516e-06
1.83499e-06
1.83596e-06
1.83795e-06
1.84089e-06
1.84499e-06
1.85023e-06
1.85688e-06
1.86366e-06
1.87088e-06
1.87478e-06
1.87638e-06
1.86975e-06
1.85735e-06
1.84284e-06
1.83443e-06
1.83443e-06
1.83444e-06
1.83444e-06
1.83444e-06
1.83444e-06
1.83444e-06
1.83444e-06
1.83444e-06
1.83445e-06
1.83446e-06
1.83447e-06
1.83449e-06
1.83452e-06
1.83455e-06
1.8346e-06
1.83466e-06
1.83474e-06
1.83482e-06
1.83493e-06
1.835e-06
1.83505e-06
1.83502e-06
1.83491e-06
1.83468e-06
1.83467e-06
1.83497e-06
1.83529e-06
1.83572e-06
1.83601e-06
1.83621e-06
1.83624e-06
1.83608e-06
1.83566e-06
1.83498e-06
1.83559e-06
1.83764e-06
1.84071e-06
1.84501e-06
1.85045e-06
1.85738e-06
1.8643e-06
1.87181e-06
1.87548e-06
1.87734e-06
1.87004e-06
1.85732e-06
1.8426e-06
1.83443e-06
1.83444e-06
1.83444e-06
1.83444e-06
1.83444e-06
1.83444e-06
1.83444e-06
1.83444e-06
1.83445e-06
1.83445e-06
1.83446e-06