/*--------------------------------*- C++ -*----------------------------------*\
  =========                 |
  \\      /  F ield         | OpenFOAM: The Open Source CFD Toolbox
   \\    /   O peration     | Website:  https://openfoam.org
    \\  /    A nd           | Version:  10
     \\/     M anipulation  |
\*---------------------------------------------------------------------------*/
FoamFile
{
    format      ascii;
    class       volScalarField;
    location    "5";
    object      nuTilda;
}
// * * * * * * * * * * * * * * * * * * * * * * * * * * * * * * * * * * * * * //

dimensions      [0 2 -1 0 0 0 0];

internalField   nonuniform List<scalar> 
38016
(
2.604e-05
2.604e-05
2.604e-05
2.604e-05
2.604e-05
2.604e-05
2.604e-05
2.604e-05
2.604e-05
2.604e-05
2.604e-05
2.604e-05
2.604e-05
2.60401e-05
2.604e-05
2.60401e-05
2.60401e-05
2.60402e-05
2.60403e-05
2.60405e-05
2.60407e-05
2.60423e-05
2.60401e-05
2.60438e-05
2.60414e-05
2.60445e-05
2.6043e-05
2.60442e-05
2.6044e-05
2.60435e-05
2.60427e-05
2.60416e-05
2.60404e-05
2.60416e-05
2.60437e-05
2.60462e-05
2.60493e-05
2.6053e-05
2.6057e-05
2.60616e-05
2.60667e-05
2.60718e-05
2.60774e-05
2.60831e-05
2.60891e-05
2.60949e-05
2.61041e-05
2.61078e-05
2.604e-05
2.604e-05
2.604e-05
2.604e-05
2.604e-05
2.604e-05
2.604e-05
2.604e-05
2.604e-05
2.604e-05
2.604e-05
2.604e-05
2.604e-05
2.604e-05
2.604e-05
2.60401e-05
2.60401e-05
2.60401e-05
2.60402e-05
2.60404e-05
2.60405e-05
2.60416e-05
2.604e-05
2.60425e-05
2.60408e-05
2.60434e-05
2.60425e-05
2.60436e-05
2.60435e-05
2.60432e-05
2.60426e-05
2.60416e-05
2.60404e-05
2.60413e-05
2.60434e-05
2.60458e-05
2.60489e-05
2.60524e-05
2.60563e-05
2.60608e-05
2.60655e-05
2.60703e-05
2.60753e-05
2.60803e-05
2.60856e-05
2.60904e-05
2.60987e-05
2.61012e-05
2.604e-05
2.604e-05
2.604e-05
2.604e-05
2.604e-05
2.604e-05
2.604e-05
2.604e-05
2.604e-05
2.604e-05
2.604e-05
2.604e-05
2.604e-05
2.604e-05
2.604e-05
2.60401e-05
2.60401e-05
2.60402e-05
2.60403e-05
2.60404e-05
2.60406e-05
2.60416e-05
2.60402e-05
2.60425e-05
2.60412e-05
2.60435e-05
2.60427e-05
2.60436e-05
2.60436e-05
2.60433e-05
2.60426e-05
2.60417e-05
2.60406e-05
2.6041e-05
2.60427e-05
2.60448e-05
2.60474e-05
2.60503e-05
2.60535e-05
2.60571e-05
2.60607e-05
2.60643e-05
2.60678e-05
2.60712e-05
2.60748e-05
2.60778e-05
2.60838e-05
2.60851e-05
2.604e-05
2.604e-05
2.604e-05
2.604e-05
2.604e-05
2.604e-05
2.604e-05
2.604e-05
2.604e-05
2.604e-05
2.604e-05
2.604e-05
2.604e-05
2.60401e-05
2.604e-05
2.60401e-05
2.60401e-05
2.60402e-05
2.60403e-05
2.60404e-05
2.60405e-05
2.60415e-05
2.60403e-05
2.60423e-05
2.60412e-05
2.60433e-05
2.60426e-05
2.60434e-05
2.60434e-05
2.60432e-05
2.60426e-05
2.60418e-05
2.60408e-05
2.60407e-05
2.60421e-05
2.60438e-05
2.60459e-05
2.60483e-05
2.6051e-05
2.60537e-05
2.60565e-05
2.6059e-05
2.60613e-05
2.60634e-05
2.60655e-05
2.60673e-05
2.60716e-05
2.6072e-05
2.604e-05
2.604e-05
2.604e-05
2.604e-05
2.604e-05
2.604e-05
2.604e-05
2.604e-05
2.604e-05
2.604e-05
2.604e-05
2.604e-05
2.604e-05
2.60401e-05
2.60401e-05
2.60401e-05
2.60401e-05
2.60402e-05
2.60403e-05
2.60404e-05
2.60406e-05
2.60414e-05
2.60404e-05
2.60423e-05
2.60414e-05
2.60433e-05
2.60428e-05
2.60436e-05
2.60436e-05
2.60433e-05
2.60428e-05
2.6042e-05
2.6041e-05
2.60406e-05
2.60417e-05
2.60433e-05
2.60452e-05
2.60473e-05
2.60495e-05
2.60518e-05
2.60539e-05
2.60557e-05
2.60571e-05
2.60582e-05
2.60593e-05
2.60604e-05
2.60636e-05
2.60637e-05
2.604e-05
2.604e-05
2.604e-05
2.604e-05
2.604e-05
2.604e-05
2.604e-05
2.604e-05
2.604e-05
2.604e-05
2.604e-05
2.604e-05
2.604e-05
2.60401e-05
2.60401e-05
2.60401e-05
2.60401e-05
2.60402e-05
2.60403e-05
2.60404e-05
2.60406e-05
2.60414e-05
2.60406e-05
2.60422e-05
2.60417e-05
2.60434e-05
2.60431e-05
2.60437e-05
2.60438e-05
2.60435e-05
2.6043e-05
2.60422e-05
2.60412e-05
2.60405e-05
2.60414e-05
2.60428e-05
2.60446e-05
2.60465e-05
2.60484e-05
2.60503e-05
2.6052e-05
2.60532e-05
2.60539e-05
2.60543e-05
2.6055e-05
2.60556e-05
2.60584e-05
2.60582e-05
2.604e-05
2.604e-05
2.604e-05
2.604e-05
2.604e-05
2.604e-05
2.604e-05
2.604e-05
2.604e-05
2.604e-05
2.604e-05
2.604e-05
2.604e-05
2.60401e-05
2.60401e-05
2.60401e-05
2.60401e-05
2.60402e-05
2.60403e-05
2.60405e-05
2.60407e-05
2.60414e-05
2.60408e-05
2.60423e-05
2.60419e-05
2.60435e-05
2.60434e-05
2.6044e-05
2.60441e-05
2.60438e-05
2.60433e-05
2.60425e-05
2.60415e-05
2.60406e-05
2.60411e-05
2.60425e-05
2.60441e-05
2.60458e-05
2.60475e-05
2.6049e-05
2.60502e-05
2.60509e-05
2.6051e-05
2.6051e-05
2.60512e-05
2.60515e-05
2.60539e-05
2.60538e-05
2.604e-05
2.604e-05
2.604e-05
2.604e-05
2.604e-05
2.604e-05
2.604e-05
2.604e-05
2.604e-05
2.604e-05
2.604e-05
2.604e-05
2.604e-05
2.60401e-05
2.60401e-05
2.60401e-05
2.60401e-05
2.60402e-05
2.60403e-05
2.60405e-05
2.60407e-05
2.60413e-05
2.60409e-05
2.60423e-05
2.60422e-05
2.60437e-05
2.60437e-05
2.60443e-05
2.60443e-05
2.60441e-05
2.60435e-05
2.60427e-05
2.60417e-05
2.60407e-05
2.60408e-05
2.6042e-05
2.60434e-05
2.6045e-05
2.60464e-05
2.60475e-05
2.60483e-05
2.60484e-05
2.60482e-05
2.60479e-05
2.6048e-05
2.60481e-05
2.60502e-05
2.605e-05
2.604e-05
2.604e-05
2.604e-05
2.604e-05
2.604e-05
2.604e-05
2.604e-05
2.604e-05
2.604e-05
2.604e-05
2.604e-05
2.604e-05
2.604e-05
2.60401e-05
2.60401e-05
2.60401e-05
2.60402e-05
2.60403e-05
2.60404e-05
2.60406e-05
2.60408e-05
2.60414e-05
2.60411e-05
2.60424e-05
2.60425e-05
2.60439e-05
2.60441e-05
2.60446e-05
2.60446e-05
2.60444e-05
2.60438e-05
2.60431e-05
2.60421e-05
2.60411e-05
2.60407e-05
2.60416e-05
2.60429e-05
2.60442e-05
2.60453e-05
2.60461e-05
2.60464e-05
2.60462e-05
2.60458e-05
2.60455e-05
2.60458e-05
2.60459e-05
2.60473e-05
2.60469e-05
2.604e-05
2.604e-05
2.604e-05
2.604e-05
2.604e-05
2.604e-05
2.604e-05
2.604e-05
2.604e-05
2.604e-05
2.604e-05
2.604e-05
2.604e-05
2.60401e-05
2.60401e-05
2.60401e-05
2.60402e-05
2.60403e-05
2.60404e-05
2.60406e-05
2.60408e-05
2.60414e-05
2.60413e-05
2.60424e-05
2.60427e-05
2.6044e-05
2.60444e-05
2.60449e-05
2.60449e-05
2.60447e-05
2.60441e-05
2.60434e-05
2.60424e-05
2.60414e-05
2.60406e-05
2.60412e-05
2.60422e-05
2.60433e-05
2.60441e-05
2.60446e-05
2.60447e-05
2.60443e-05
2.60443e-05
2.60445e-05
2.60453e-05
2.60461e-05
2.60454e-05
2.60447e-05
2.604e-05
2.604e-05
2.604e-05
2.604e-05
2.604e-05
2.604e-05
2.604e-05
2.604e-05
2.604e-05
2.604e-05
2.604e-05
2.604e-05
2.604e-05
2.60401e-05
2.60401e-05
2.60402e-05
2.60402e-05
2.60403e-05
2.60404e-05
2.60406e-05
2.60409e-05
2.60414e-05
2.60415e-05
2.60426e-05
2.6043e-05
2.60443e-05
2.60447e-05
2.60452e-05
2.60453e-05
2.60451e-05
2.60445e-05
2.60438e-05
2.60428e-05
2.60419e-05
2.60409e-05
2.6041e-05
2.60418e-05
2.60425e-05
2.60432e-05
2.60435e-05
2.60435e-05
2.60434e-05
2.60444e-05
2.60458e-05
2.60472e-05
2.60481e-05
2.60461e-05
2.60435e-05
2.604e-05
2.604e-05
2.604e-05
2.604e-05
2.604e-05
2.604e-05
2.604e-05
2.604e-05
2.604e-05
2.604e-05
2.604e-05
2.604e-05
2.60401e-05
2.60401e-05
2.60401e-05
2.60402e-05
2.60402e-05
2.60403e-05
2.60405e-05
2.60407e-05
2.60409e-05
2.60414e-05
2.60416e-05
2.60426e-05
2.60433e-05
2.60445e-05
2.60451e-05
2.60455e-05
2.60456e-05
2.60454e-05
2.60448e-05
2.60441e-05
2.60432e-05
2.60423e-05
2.60413e-05
2.60411e-05
2.60414e-05
2.6042e-05
2.60425e-05
2.60428e-05
2.60433e-05
2.60441e-05
2.60463e-05
2.60483e-05
2.60502e-05
2.60506e-05
2.60485e-05
2.60441e-05
2.604e-05
2.604e-05
2.604e-05
2.604e-05
2.604e-05
2.604e-05
2.604e-05
2.604e-05
2.604e-05
2.604e-05
2.604e-05
2.604e-05
2.60401e-05
2.60401e-05
2.60401e-05
2.60402e-05
2.60402e-05
2.60404e-05
2.60405e-05
2.60407e-05
2.6041e-05
2.60415e-05
2.60418e-05
2.60428e-05
2.60435e-05
2.60448e-05
2.60454e-05
2.60459e-05
2.6046e-05
2.60458e-05
2.60453e-05
2.60446e-05
2.60437e-05
2.60429e-05
2.6042e-05
2.60416e-05
2.60417e-05
2.60421e-05
2.60427e-05
2.60432e-05
2.60444e-05
2.60461e-05
2.60486e-05
2.60511e-05
2.60533e-05
2.60536e-05
2.60509e-05
2.6045e-05
2.604e-05
2.604e-05
2.604e-05
2.604e-05
2.604e-05
2.604e-05
2.604e-05
2.604e-05
2.604e-05
2.604e-05
2.604e-05
2.604e-05
2.60401e-05
2.60401e-05
2.60401e-05
2.60402e-05
2.60402e-05
2.60404e-05
2.60406e-05
2.60408e-05
2.60411e-05
2.60416e-05
2.6042e-05
2.60429e-05
2.60438e-05
2.60451e-05
2.60458e-05
2.60463e-05
2.60464e-05
2.60462e-05
2.60457e-05
2.6045e-05
2.60441e-05
2.60434e-05
2.60426e-05
2.60423e-05
2.60423e-05
2.60427e-05
2.60435e-05
2.60445e-05
2.6046e-05
2.60483e-05
2.60511e-05
2.60543e-05
2.60565e-05
2.60569e-05
2.60532e-05
2.60451e-05
2.604e-05
2.604e-05
2.604e-05
2.604e-05
2.604e-05
2.604e-05
2.604e-05
2.604e-05
2.604e-05
2.604e-05
2.604e-05
2.604e-05
2.60401e-05
2.60401e-05
2.60401e-05
2.60402e-05
2.60403e-05
2.60404e-05
2.60406e-05
2.60409e-05
2.60412e-05
2.60417e-05
2.60421e-05
2.60431e-05
2.60441e-05
2.60454e-05
2.60462e-05
2.60467e-05
2.60469e-05
2.60467e-05
2.60461e-05
2.60455e-05
2.60447e-05
2.60441e-05
2.60434e-05
2.60431e-05
2.60433e-05
2.60438e-05
2.60447e-05
2.60459e-05
2.60478e-05
2.60505e-05
2.6054e-05
2.60575e-05
2.60598e-05
2.60601e-05
2.60552e-05
2.60448e-05
2.604e-05
2.604e-05
2.604e-05
2.604e-05
2.604e-05
2.604e-05
2.604e-05
2.604e-05
2.604e-05
2.604e-05
2.604e-05
2.604e-05
2.60401e-05
2.60401e-05
2.60401e-05
2.60402e-05
2.60403e-05
2.60404e-05
2.60406e-05
2.60409e-05
2.60413e-05
2.60418e-05
2.60423e-05
2.60433e-05
2.60444e-05
2.60457e-05
2.60466e-05
2.60471e-05
2.60473e-05
2.60471e-05
2.60466e-05
2.6046e-05
2.60452e-05
2.60447e-05
2.60442e-05
2.6044e-05
2.60443e-05
2.60449e-05
2.6046e-05
2.60475e-05
2.60499e-05
2.6053e-05
2.60569e-05
2.60604e-05
2.60632e-05
2.60628e-05
2.60579e-05
2.60453e-05
2.604e-05
2.604e-05
2.604e-05
2.604e-05
2.604e-05
2.604e-05
2.604e-05
2.604e-05
2.604e-05
2.604e-05
2.604e-05
2.60401e-05
2.60401e-05
2.60401e-05
2.60402e-05
2.60402e-05
2.60403e-05
2.60405e-05
2.60407e-05
2.6041e-05
2.60414e-05
2.60419e-05
2.60425e-05
2.60435e-05
2.60447e-05
2.60461e-05
2.6047e-05
2.60476e-05
2.60478e-05
2.60476e-05
2.60471e-05
2.60465e-05
2.60459e-05
2.60454e-05
2.60451e-05
2.60451e-05
2.60454e-05
2.60462e-05
2.60474e-05
2.60492e-05
2.6052e-05
2.60554e-05
2.60596e-05
2.60635e-05
2.60663e-05
2.60657e-05
2.60603e-05
2.60454e-05
2.604e-05
2.604e-05
2.604e-05
2.604e-05
2.604e-05
2.604e-05
2.604e-05
2.604e-05
2.604e-05
2.604e-05
2.604e-05
2.60401e-05
2.60401e-05
2.60401e-05
2.60402e-05
2.60403e-05
2.60404e-05
2.60405e-05
2.60408e-05
2.60411e-05
2.60415e-05
2.6042e-05
2.60427e-05
2.60437e-05
2.6045e-05
2.60464e-05
2.60474e-05
2.6048e-05
2.60482e-05
2.60481e-05
2.60476e-05
2.6047e-05
2.60464e-05
2.60461e-05
2.60459e-05
2.60461e-05
2.60466e-05
2.60476e-05
2.60489e-05
2.6051e-05
2.60541e-05
2.60579e-05
2.60623e-05
2.60665e-05
2.60694e-05
2.60686e-05
2.60626e-05
2.60454e-05
2.604e-05
2.604e-05
2.604e-05
2.604e-05
2.604e-05
2.604e-05
2.604e-05
2.604e-05
2.604e-05
2.604e-05
2.604e-05
2.60401e-05
2.60401e-05
2.60401e-05
2.60402e-05
2.60403e-05
2.60404e-05
2.60406e-05
2.60408e-05
2.60412e-05
2.60416e-05
2.60422e-05
2.60429e-05
2.6044e-05
2.60453e-05
2.60468e-05
2.60479e-05
2.60485e-05
2.60487e-05
2.60486e-05
2.60481e-05
2.60477e-05
2.60471e-05
2.60469e-05
2.60469e-05
2.60471e-05
2.60478e-05
2.60489e-05
2.60505e-05
2.60528e-05
2.60561e-05
2.60603e-05
2.6065e-05
2.60697e-05
2.60724e-05
2.60715e-05
2.60649e-05
2.6045e-05
2.604e-05
2.604e-05
2.604e-05
2.604e-05
2.604e-05
2.604e-05
2.604e-05
2.604e-05
2.604e-05
2.604e-05
2.604e-05
2.60401e-05
2.60401e-05
2.60401e-05
2.60402e-05
2.60403e-05
2.60404e-05
2.60406e-05
2.60409e-05
2.60413e-05
2.60417e-05
2.60423e-05
2.60431e-05
2.60442e-05
2.60457e-05
2.60471e-05
2.60483e-05
2.6049e-05
2.60492e-05
2.60491e-05
2.60486e-05
2.60482e-05
2.60478e-05
2.60476e-05
2.60477e-05
2.60481e-05
2.6049e-05
2.60502e-05
2.60519e-05
2.60546e-05
2.60581e-05
2.60628e-05
2.60677e-05
2.60731e-05
2.60755e-05
2.60746e-05
2.6067e-05
2.6044e-05
2.604e-05
2.604e-05
2.604e-05
2.604e-05
2.604e-05
2.604e-05
2.604e-05
2.604e-05
2.604e-05
2.604e-05
2.604e-05
2.60401e-05
2.60401e-05
2.60402e-05
2.60402e-05
2.60403e-05
2.60405e-05
2.60407e-05
2.6041e-05
2.60414e-05
2.60418e-05
2.60425e-05
2.60434e-05
2.60445e-05
2.6046e-05
2.60475e-05
2.60487e-05
2.60495e-05
2.60497e-05
2.60496e-05
2.60492e-05
2.60489e-05
2.60485e-05
2.60485e-05
2.60487e-05
2.60492e-05
2.60501e-05
2.60514e-05
2.60534e-05
2.60564e-05
2.60602e-05
2.60653e-05
2.60706e-05
2.60763e-05
2.60789e-05
2.60779e-05
2.6069e-05
2.6043e-05
2.604e-05
2.604e-05
2.604e-05
2.604e-05
2.604e-05
2.604e-05
2.604e-05
2.604e-05
2.604e-05
2.604e-05
2.604e-05
2.60401e-05
2.60401e-05
2.60402e-05
2.60402e-05
2.60403e-05
2.60405e-05
2.60407e-05
2.6041e-05
2.60415e-05
2.6042e-05
2.60426e-05
2.60436e-05
2.60447e-05
2.60464e-05
2.60479e-05
2.60492e-05
2.60499e-05
2.60502e-05
2.60501e-05
2.60498e-05
2.60495e-05
2.60492e-05
2.60492e-05
2.60495e-05
2.60502e-05
2.60512e-05
2.60527e-05
2.60548e-05
2.60581e-05
2.60623e-05
2.60677e-05
2.60738e-05
2.60796e-05
2.6083e-05
2.6081e-05
2.60717e-05
2.60427e-05
2.604e-05
2.604e-05
2.604e-05
2.604e-05
2.604e-05
2.604e-05
2.604e-05
2.604e-05
2.604e-05
2.604e-05
2.604e-05
2.60401e-05
2.60401e-05
2.60402e-05
2.60402e-05
2.60404e-05
2.60405e-05
2.60408e-05
2.60411e-05
2.60416e-05
2.60421e-05
2.60428e-05
2.60438e-05
2.6045e-05
2.60467e-05
2.60483e-05
2.60496e-05
2.60504e-05
2.60507e-05
2.60507e-05
2.60504e-05
2.60501e-05
2.60499e-05
2.605e-05
2.60504e-05
2.60511e-05
2.60522e-05
2.60539e-05
2.60563e-05
2.60597e-05
2.60644e-05
2.60701e-05
2.60771e-05
2.60827e-05
2.60871e-05
2.60843e-05
2.60732e-05
2.60411e-05
2.604e-05
2.604e-05
2.604e-05
2.604e-05
2.604e-05
2.604e-05
2.604e-05
2.604e-05
2.604e-05
2.604e-05
2.60401e-05
2.60401e-05
2.60401e-05
2.60402e-05
2.60403e-05
2.60404e-05
2.60406e-05
2.60408e-05
2.60412e-05
2.60417e-05
2.60422e-05
2.60429e-05
2.6044e-05
2.60452e-05
2.6047e-05
2.60487e-05
2.605e-05
2.60509e-05
2.60512e-05
2.60512e-05
2.60509e-05
2.60507e-05
2.60506e-05
2.60507e-05
2.60512e-05
2.6052e-05
2.60533e-05
2.6055e-05
2.60577e-05
2.60613e-05
2.60667e-05
2.60724e-05
2.60806e-05
2.60856e-05
2.60916e-05
2.60864e-05
2.60759e-05
2.60421e-05
2.604e-05
2.604e-05
2.604e-05
2.604e-05
2.604e-05
2.604e-05
2.604e-05
2.604e-05
2.604e-05
2.604e-05
2.60401e-05
2.60401e-05
2.60401e-05
2.60402e-05
2.60403e-05
2.60404e-05
2.60406e-05
2.60409e-05
2.60413e-05
2.60418e-05
2.60424e-05
2.60431e-05
2.60443e-05
2.60455e-05
2.60473e-05
2.60491e-05
2.60505e-05
2.60513e-05
2.60517e-05
2.60517e-05
2.60515e-05
2.60513e-05
2.60513e-05
2.60515e-05
2.6052e-05
2.60529e-05
2.60542e-05
2.60561e-05
2.60591e-05
2.6063e-05
2.60688e-05
2.60749e-05
2.60836e-05
2.6089e-05
2.60953e-05
2.60893e-05
2.60782e-05
2.60416e-05
2.604e-05
2.604e-05
2.604e-05
2.604e-05
2.604e-05
2.604e-05
2.604e-05
2.604e-05
2.604e-05
2.604e-05
2.60401e-05
2.60401e-05
2.60401e-05
2.60402e-05
2.60403e-05
2.60405e-05
2.60407e-05
2.6041e-05
2.60414e-05
2.60419e-05
2.60425e-05
2.60433e-05
2.60445e-05
2.60458e-05
2.60476e-05
2.60494e-05
2.60508e-05
2.60517e-05
2.60521e-05
2.60521e-05
2.6052e-05
2.60519e-05
2.60519e-05
2.60521e-05
2.60527e-05
2.60537e-05
2.60551e-05
2.60572e-05
2.60605e-05
2.60647e-05
2.60708e-05
2.60777e-05
2.60867e-05
2.60928e-05
2.60991e-05
2.60925e-05
2.60809e-05
2.60417e-05
2.604e-05
2.604e-05
2.604e-05
2.604e-05
2.604e-05
2.604e-05
2.604e-05
2.604e-05
2.604e-05
2.604e-05
2.60401e-05
2.60401e-05
2.60401e-05
2.60402e-05
2.60403e-05
2.60405e-05
2.60407e-05
2.6041e-05
2.60415e-05
2.6042e-05
2.60427e-05
2.60435e-05
2.60447e-05
2.6046e-05
2.60479e-05
2.60497e-05
2.60512e-05
2.60521e-05
2.60525e-05
2.60526e-05
2.60525e-05
2.60524e-05
2.60525e-05
2.60528e-05
2.60534e-05
2.60544e-05
2.6056e-05
2.60583e-05
2.60618e-05
2.60665e-05
2.6073e-05
2.60806e-05
2.60899e-05
2.60972e-05
2.6103e-05
2.60965e-05
2.6084e-05
2.60424e-05
2.604e-05
2.604e-05
2.604e-05
2.604e-05
2.604e-05
2.604e-05
2.604e-05
2.604e-05
2.604e-05
2.604e-05
2.60401e-05
2.60401e-05
2.60402e-05
2.60402e-05
2.60403e-05
2.60405e-05
2.60408e-05
2.60411e-05
2.60415e-05
2.60421e-05
2.60428e-05
2.60437e-05
2.60449e-05
2.60463e-05
2.60482e-05
2.605e-05
2.60515e-05
2.60525e-05
2.60529e-05
2.6053e-05
2.60529e-05
2.60529e-05
2.6053e-05
2.60533e-05
2.6054e-05
2.60551e-05
2.60567e-05
2.60594e-05
2.60631e-05
2.60683e-05
2.60752e-05
2.60838e-05
2.60936e-05
2.61021e-05
2.61073e-05
2.61024e-05
2.60871e-05
2.60407e-05
2.604e-05
2.604e-05
2.604e-05
2.604e-05
2.604e-05
2.604e-05
2.604e-05
2.604e-05
2.604e-05
2.604e-05
2.60401e-05
2.60401e-05
2.60402e-05
2.60403e-05
2.60404e-05
2.60406e-05
2.60408e-05
2.60412e-05
2.60416e-05
2.60423e-05
2.6043e-05
2.60439e-05
2.60452e-05
2.60465e-05
2.60485e-05
2.60503e-05
2.60518e-05
2.60528e-05
2.60532e-05
2.60534e-05
2.60533e-05
2.60533e-05
2.60534e-05
2.60538e-05
2.60545e-05
2.60557e-05
2.60575e-05
2.60603e-05
2.60644e-05
2.607e-05
2.60777e-05
2.60869e-05
2.60979e-05
2.61071e-05
2.6112e-05
2.61091e-05
2.60892e-05
2.60381e-05
2.604e-05
2.604e-05
2.604e-05
2.604e-05
2.604e-05
2.604e-05
2.604e-05
2.604e-05
2.604e-05
2.604e-05
2.60401e-05
2.60401e-05
2.60402e-05
2.60403e-05
2.60404e-05
2.60406e-05
2.60409e-05
2.60412e-05
2.60417e-05
2.60424e-05
2.60432e-05
2.60441e-05
2.60454e-05
2.60467e-05
2.60487e-05
2.60505e-05
2.6052e-05
2.6053e-05
2.60534e-05
2.60536e-05
2.60536e-05
2.60536e-05
2.60537e-05
2.60542e-05
2.60549e-05
2.60562e-05
2.60581e-05
2.60612e-05
2.60656e-05
2.60718e-05
2.60802e-05
2.60902e-05
2.61022e-05
2.61116e-05
2.6118e-05
2.61123e-05
2.60938e-05
2.60398e-05
2.604e-05
2.604e-05
2.604e-05
2.604e-05
2.604e-05
2.604e-05
2.604e-05
2.604e-05
2.604e-05
2.604e-05
2.60401e-05
2.60401e-05
2.60402e-05
2.60403e-05
2.60404e-05
2.60406e-05
2.60409e-05
2.60413e-05
2.60418e-05
2.60425e-05
2.60433e-05
2.60443e-05
2.60455e-05
2.60469e-05
2.60489e-05
2.60507e-05
2.60522e-05
2.60532e-05
2.60537e-05
2.60539e-05
2.60538e-05
2.60539e-05
2.6054e-05
2.60545e-05
2.60553e-05
2.60566e-05
2.60587e-05
2.6062e-05
2.60668e-05
2.60734e-05
2.60825e-05
2.60932e-05
2.61061e-05
2.61164e-05
2.61219e-05
2.6118e-05
2.60952e-05
2.60403e-05
2.604e-05
2.604e-05
2.604e-05
2.604e-05
2.604e-05
2.604e-05
2.604e-05
2.604e-05
2.604e-05
2.60401e-05
2.60401e-05
2.60401e-05
2.60402e-05
2.60403e-05
2.60404e-05
2.60407e-05
2.6041e-05
2.60414e-05
2.60419e-05
2.60426e-05
2.60434e-05
2.60444e-05
2.60457e-05
2.60471e-05
2.6049e-05
2.60509e-05
2.60523e-05
2.60533e-05
2.60537e-05
2.6054e-05
2.60539e-05
2.6054e-05
2.60542e-05
2.60546e-05
2.60555e-05
2.60569e-05
2.60592e-05
2.60627e-05
2.6068e-05
2.6075e-05
2.60849e-05
2.60963e-05
2.61101e-05
2.61202e-05
2.61276e-05
2.61186e-05
2.60986e-05
2.60427e-05
2.604e-05
2.604e-05
2.604e-05
2.604e-05
2.604e-05
2.604e-05
2.604e-05
2.604e-05
2.604e-05
2.60401e-05
2.60401e-05
2.60401e-05
2.60402e-05
2.60403e-05
2.60405e-05
2.60407e-05
2.6041e-05
2.60414e-05
2.6042e-05
2.60428e-05
2.60436e-05
2.60446e-05
2.60459e-05
2.60473e-05
2.60491e-05
2.60509e-05
2.60524e-05
2.60533e-05
2.60537e-05
2.6054e-05
2.6054e-05
2.60541e-05
2.60542e-05
2.60547e-05
2.60556e-05
2.60572e-05
2.60597e-05
2.60634e-05
2.60691e-05
2.60766e-05
2.60874e-05
2.60993e-05
2.61144e-05
2.61242e-05
2.6133e-05
2.61212e-05
2.6101e-05
2.60468e-05
2.604e-05
2.604e-05
2.604e-05
2.604e-05
2.604e-05
2.604e-05
2.604e-05
2.604e-05
2.604e-05
2.60401e-05
2.60401e-05
2.60401e-05
2.60402e-05
2.60403e-05
2.60405e-05
2.60407e-05
2.60411e-05
2.60415e-05
2.60421e-05
2.60429e-05
2.60437e-05
2.60447e-05
2.6046e-05
2.60473e-05
2.60491e-05
2.60509e-05
2.60523e-05
2.60533e-05
2.60536e-05
2.60539e-05
2.60539e-05
2.60539e-05
2.60541e-05
2.60546e-05
2.60557e-05
2.60574e-05
2.606e-05
2.6064e-05
2.60702e-05
2.60783e-05
2.60899e-05
2.61026e-05
2.61186e-05
2.61286e-05
2.61384e-05
2.61237e-05
2.61037e-05
2.60483e-05
2.604e-05
2.604e-05
2.604e-05
2.604e-05
2.604e-05
2.604e-05
2.604e-05
2.604e-05
2.604e-05
2.60401e-05
2.60401e-05
2.60401e-05
2.60402e-05
2.60403e-05
2.60405e-05
2.60408e-05
2.60411e-05
2.60416e-05
2.60422e-05
2.6043e-05
2.60438e-05
2.60448e-05
2.60461e-05
2.60474e-05
2.60491e-05
2.60509e-05
2.60522e-05
2.60531e-05
2.60535e-05
2.60537e-05
2.60537e-05
2.60538e-05
2.6054e-05
2.60545e-05
2.60557e-05
2.60575e-05
2.60603e-05
2.60646e-05
2.60713e-05
2.608e-05
2.60924e-05
2.6106e-05
2.61224e-05
2.61333e-05
2.61427e-05
2.61268e-05
2.61065e-05
2.60519e-05
2.604e-05
2.604e-05
2.604e-05
2.604e-05
2.604e-05
2.604e-05
2.604e-05
2.604e-05
2.604e-05
2.60401e-05
2.60401e-05
2.60401e-05
2.60402e-05
2.60403e-05
2.60405e-05
2.60408e-05
2.60412e-05
2.60416e-05
2.60422e-05
2.60431e-05
2.60439e-05
2.60449e-05
2.60461e-05
2.60474e-05
2.6049e-05
2.60507e-05
2.60519e-05
2.60528e-05
2.60531e-05
2.60533e-05
2.60533e-05
2.60534e-05
2.60536e-05
2.60542e-05
2.60555e-05
2.60575e-05
2.60606e-05
2.60651e-05
2.60724e-05
2.60815e-05
2.60949e-05
2.6109e-05
2.61268e-05
2.61375e-05
2.61472e-05
2.61317e-05
2.61075e-05
2.60543e-05
2.604e-05
2.604e-05
2.604e-05
2.604e-05
2.604e-05
2.604e-05
2.604e-05
2.604e-05
2.604e-05
2.60401e-05
2.60401e-05
2.60402e-05
2.60402e-05
2.60404e-05
2.60405e-05
2.60408e-05
2.60412e-05
2.60417e-05
2.60423e-05
2.60431e-05
2.6044e-05
2.6045e-05
2.60462e-05
2.60474e-05
2.60489e-05
2.60505e-05
2.60516e-05
2.60524e-05
2.60527e-05
2.60529e-05
2.60529e-05
2.60529e-05
2.60531e-05
2.60538e-05
2.60553e-05
2.60573e-05
2.60608e-05
2.60656e-05
2.60736e-05
2.60828e-05
2.60978e-05
2.61113e-05
2.61315e-05
2.61404e-05
2.61511e-05
2.61366e-05
2.61044e-05
2.60549e-05
2.604e-05
2.604e-05
2.604e-05
2.604e-05
2.604e-05
2.604e-05
2.604e-05
2.604e-05
2.604e-05
2.60401e-05
2.60401e-05
2.60402e-05
2.60402e-05
2.60404e-05
2.60406e-05
2.60408e-05
2.60412e-05
2.60417e-05
2.60424e-05
2.60432e-05
2.6044e-05
2.6045e-05
2.60461e-05
2.60473e-05
2.60487e-05
2.60501e-05
2.60512e-05
2.60519e-05
2.60522e-05
2.60522e-05
2.60522e-05
2.60523e-05
2.60525e-05
2.60533e-05
2.60548e-05
2.60571e-05
2.60609e-05
2.60659e-05
2.60749e-05
2.60841e-05
2.6101e-05
2.61136e-05
2.61369e-05
2.61422e-05
2.6158e-05
2.61358e-05
2.61026e-05
2.60571e-05
2.604e-05
2.604e-05
2.604e-05
2.604e-05
2.604e-05
2.604e-05
2.604e-05
2.604e-05
2.604e-05
2.60401e-05
2.60401e-05
2.60402e-05
2.60402e-05
2.60404e-05
2.60406e-05
2.60408e-05
2.60413e-05
2.60417e-05
2.60424e-05
2.60432e-05
2.60441e-05
2.60451e-05
2.60461e-05
2.60472e-05
2.60484e-05
2.60497e-05
2.60506e-05
2.60513e-05
2.60515e-05
2.60515e-05
2.60515e-05
2.60515e-05
2.60518e-05
2.60526e-05
2.60544e-05
2.60568e-05
2.6061e-05
2.60663e-05
2.60762e-05
2.60856e-05
2.61043e-05
2.61167e-05
2.61425e-05
2.61468e-05
2.61619e-05
2.61454e-05
2.61003e-05
2.60573e-05
2.604e-05
2.604e-05
2.604e-05
2.604e-05
2.604e-05
2.604e-05
2.604e-05
2.604e-05
2.604e-05
2.60401e-05
2.60401e-05
2.60402e-05
2.60403e-05
2.60404e-05
2.60406e-05
2.60409e-05
2.60413e-05
2.60418e-05
2.60424e-05
2.60433e-05
2.60441e-05
2.6045e-05
2.6046e-05
2.6047e-05
2.6048e-05
2.60492e-05
2.605e-05
2.60505e-05
2.60507e-05
2.60506e-05
2.60506e-05
2.60506e-05
2.60509e-05
2.60519e-05
2.60538e-05
2.60563e-05
2.6061e-05
2.60667e-05
2.60775e-05
2.60877e-05
2.6108e-05
2.61211e-05
2.61488e-05
2.61522e-05
2.61713e-05
2.6146e-05
2.61035e-05
2.60611e-05
2.604e-05
2.604e-05
2.604e-05
2.604e-05
2.604e-05
2.604e-05
2.604e-05
2.604e-05
2.604e-05
2.60401e-05
2.60401e-05
2.60402e-05
2.60403e-05
2.60404e-05
2.60406e-05
2.60409e-05
2.60413e-05
2.60418e-05
2.60424e-05
2.60433e-05
2.60441e-05
2.6045e-05
2.60459e-05
2.60468e-05
2.60476e-05
2.60486e-05
2.60493e-05
2.60496e-05
2.60497e-05
2.60496e-05
2.60495e-05
2.60495e-05
2.60499e-05
2.6051e-05
2.6053e-05
2.60558e-05
2.60609e-05
2.60672e-05
2.60787e-05
2.60903e-05
2.61113e-05
2.61271e-05
2.61543e-05
2.6163e-05
2.61739e-05
2.61625e-05
2.61091e-05
2.60621e-05
2.604e-05
2.604e-05
2.604e-05
2.604e-05
2.604e-05
2.604e-05
2.604e-05
2.604e-05
2.604e-05
2.60401e-05
2.60401e-05
2.60402e-05
2.60403e-05
2.60404e-05
2.60406e-05
2.60409e-05
2.60413e-05
2.60418e-05
2.60424e-05
2.60432e-05
2.6044e-05
2.60449e-05
2.60457e-05
2.60465e-05
2.60471e-05
2.60479e-05
2.60484e-05
2.60486e-05
2.60486e-05
2.60484e-05
2.60483e-05
2.60483e-05
2.60488e-05
2.605e-05
2.60522e-05
2.60552e-05
2.60607e-05
2.60678e-05
2.60796e-05
2.60934e-05
2.61139e-05
2.61339e-05
2.61584e-05
2.61716e-05
2.61798e-05
2.61626e-05
2.61183e-05
2.60669e-05
2.604e-05
2.604e-05
2.604e-05
2.604e-05
2.604e-05
2.604e-05
2.604e-05
2.604e-05
2.604e-05
2.60401e-05
2.60401e-05
2.60402e-05
2.60403e-05
2.60404e-05
2.60406e-05
2.60409e-05
2.60413e-05
2.60418e-05
2.60424e-05
2.60432e-05
2.6044e-05
2.60448e-05
2.60455e-05
2.60461e-05
2.60466e-05
2.60472e-05
2.60475e-05
2.60475e-05
2.60474e-05
2.60471e-05
2.6047e-05
2.6047e-05
2.60475e-05
2.60489e-05
2.60512e-05
2.60545e-05
2.60602e-05
2.60685e-05
2.60802e-05
2.60966e-05
2.61163e-05
2.61407e-05
2.61621e-05
2.61823e-05
2.61807e-05
2.61752e-05
2.61245e-05
2.60665e-05
2.604e-05
2.604e-05
2.604e-05
2.604e-05
2.604e-05
2.604e-05
2.604e-05
2.604e-05
2.60401e-05
2.60401e-05
2.60401e-05
2.60402e-05
2.60403e-05
2.60404e-05
2.60406e-05
2.60409e-05
2.60413e-05
2.60418e-05
2.60424e-05
2.60431e-05
2.60439e-05
2.60446e-05
2.60452e-05
2.60457e-05
2.6046e-05
2.60463e-05
2.60464e-05
2.60463e-05
2.60461e-05
2.60457e-05
2.60456e-05
2.60456e-05
2.60462e-05
2.60476e-05
2.60499e-05
2.60539e-05
2.60595e-05
2.60693e-05
2.60806e-05
2.60998e-05
2.61186e-05
2.6147e-05
2.61654e-05
2.619e-05
2.61853e-05
2.61745e-05
2.61311e-05
2.60698e-05
2.604e-05
2.604e-05
2.604e-05
2.604e-05
2.604e-05
2.604e-05
2.604e-05
2.604e-05
2.604e-05
2.60401e-05
2.60401e-05
2.60402e-05
2.60403e-05
2.60404e-05
2.60406e-05
2.60409e-05
2.60413e-05
2.60417e-05
2.60423e-05
2.60431e-05
2.60437e-05
2.60444e-05
2.6045e-05
2.60453e-05
2.60453e-05
2.60455e-05
2.60453e-05
2.6045e-05
2.60447e-05
2.60443e-05
2.60441e-05
2.60442e-05
2.60447e-05
2.60462e-05
2.60486e-05
2.6053e-05
2.60591e-05
2.60694e-05
2.6082e-05
2.61016e-05
2.61226e-05
2.61506e-05
2.61721e-05
2.61945e-05
2.6193e-05
2.61785e-05
2.61327e-05
2.60723e-05
2.604e-05
2.604e-05
2.604e-05
2.604e-05
2.604e-05
2.604e-05
2.604e-05
2.604e-05
2.60401e-05
2.60401e-05
2.60401e-05
2.60402e-05
2.60403e-05
2.60404e-05
2.60406e-05
2.60409e-05
2.60412e-05
2.60417e-05
2.60423e-05
2.6043e-05
2.60436e-05
2.60442e-05
2.60446e-05
2.60448e-05
2.60446e-05
2.60445e-05
2.60442e-05
2.60437e-05
2.60434e-05
2.60429e-05
2.60428e-05
2.60429e-05
2.60434e-05
2.60448e-05
2.60473e-05
2.60519e-05
2.60586e-05
2.60694e-05
2.60832e-05
2.61034e-05
2.61263e-05
2.61545e-05
2.61783e-05
2.61993e-05
2.61998e-05
2.61819e-05
2.61342e-05
2.60739e-05
2.604e-05
2.604e-05
2.604e-05
2.604e-05
2.604e-05
2.604e-05
2.604e-05
2.604e-05
2.60401e-05
2.60401e-05
2.60401e-05
2.60402e-05
2.60403e-05
2.60404e-05
2.60406e-05
2.60408e-05
2.60412e-05
2.60416e-05
2.60422e-05
2.60428e-05
2.60434e-05
2.6044e-05
2.60443e-05
2.60443e-05
2.60438e-05
2.60435e-05
2.60431e-05
2.60425e-05
2.60422e-05
2.6042e-05
2.6042e-05
2.6042e-05
2.60423e-05
2.60434e-05
2.60458e-05
2.60506e-05
2.60579e-05
2.60693e-05
2.60843e-05
2.61052e-05
2.61299e-05
2.61584e-05
2.61844e-05
2.62042e-05
2.62066e-05
2.61856e-05
2.61359e-05
2.60753e-05
2.604e-05
2.604e-05
2.604e-05
2.604e-05
2.604e-05
2.604e-05
2.604e-05
2.604e-05
2.60401e-05
2.60401e-05
2.60401e-05
2.60402e-05
2.60403e-05
2.60404e-05
2.60406e-05
2.60408e-05
2.60412e-05
2.60416e-05
2.60421e-05
2.60427e-05
2.60432e-05
2.60437e-05
2.60439e-05
2.60437e-05
2.60431e-05
2.60426e-05
2.60421e-05
2.60416e-05
2.60417e-05
2.60419e-05
2.60423e-05
2.60423e-05
2.60421e-05
2.60424e-05
2.60444e-05
2.60493e-05
2.60571e-05
2.60691e-05
2.60852e-05
2.61069e-05
2.61332e-05
2.61621e-05
2.61901e-05
2.62089e-05
2.62128e-05
2.61891e-05
2.61374e-05
2.60764e-05
2.604e-05
2.604e-05
2.604e-05
2.604e-05
2.604e-05
2.604e-05
2.604e-05
2.604e-05
2.60401e-05
2.60401e-05
2.60401e-05
2.60402e-05
2.60403e-05
2.60404e-05
2.60406e-05
2.60408e-05
2.60411e-05
2.60415e-05
2.60419e-05
2.60425e-05
2.6043e-05
2.60434e-05
2.60434e-05
2.60432e-05
2.60423e-05
2.60417e-05
2.60414e-05
2.60416e-05
2.60426e-05
2.60434e-05
2.6044e-05
2.6044e-05
2.60434e-05
2.60424e-05
2.60431e-05
2.60478e-05
2.60562e-05
2.60687e-05
2.60859e-05
2.61084e-05
2.61363e-05
2.61656e-05
2.61956e-05
2.62133e-05
2.62188e-05
2.61923e-05
2.61388e-05
2.6077e-05
2.604e-05
2.604e-05
2.604e-05
2.604e-05
2.604e-05
2.604e-05
2.604e-05
2.604e-05
2.60401e-05
2.60401e-05
2.60401e-05
2.60402e-05
2.60403e-05
2.60404e-05
2.60405e-05
2.60408e-05
2.60411e-05
2.60414e-05
2.60418e-05
2.60423e-05
2.60427e-05
2.6043e-05
2.6043e-05
2.60426e-05
2.60416e-05
2.60411e-05
2.60416e-05
2.60427e-05
2.60443e-05
2.60454e-05
2.60462e-05
2.60463e-05
2.60456e-05
2.60438e-05
2.60423e-05
2.60462e-05
2.6055e-05
2.60681e-05
2.60863e-05
2.61096e-05
2.61389e-05
2.61688e-05
2.62002e-05
2.62172e-05
2.62238e-05
2.6195e-05
2.61396e-05
2.60769e-05
2.604e-05
2.604e-05
2.604e-05
2.604e-05
2.604e-05
2.604e-05
2.604e-05
2.604e-05
2.60401e-05
2.60401e-05
2.60401e-05
2.60402e-05
2.60402e-05
2.60404e-05
2.60405e-05
2.60407e-05
2.6041e-05
2.60413e-05
2.60417e-05
2.60421e-05
2.60424e-05
2.60426e-05
2.60425e-05
2.6042e-05
2.6041e-05
2.60412e-05
2.60427e-05
2.60443e-05
2.60462e-05
2.60476e-05
2.60486e-05
2.60487e-05
2.6048e-05
2.60461e-05
2.60428e-05
2.60446e-05
2.60535e-05
2.60672e-05
2.60863e-05
2.61105e-05
2.61408e-05
2.61717e-05
2.62038e-05
2.62206e-05
2.62272e-05
2.61967e-05
2.61399e-05
2.60758e-05
2.604e-05
2.604e-05
2.604e-05
2.604e-05
2.604e-05
2.604e-05
2.604e-05
2.604e-05
2.60401e-05
2.60401e-05
2.60401e-05
2.60402e-05
2.60402e-05
2.60404e-05
2.60405e-05
2.60407e-05
2.60409e-05
2.60412e-05
2.60415e-05
2.60419e-05
2.60421e-05
2.60423e-05
2.6042e-05
2.60414e-05
2.60408e-05
2.6042e-05
2.60441e-05
2.6046e-05
2.60482e-05
2.60499e-05
2.6051e-05
2.60513e-05
2.60506e-05
2.60487e-05
2.60447e-05
2.60432e-05
2.60518e-05
2.60663e-05
2.60858e-05
2.61114e-05
2.61419e-05
2.61749e-05
2.62055e-05
2.6225e-05
2.62275e-05
2.61991e-05
2.61417e-05
2.60748e-05
2.604e-05
2.604e-05
2.604e-05
2.604e-05
2.604e-05
2.604e-05
2.604e-05
2.604e-05
2.60401e-05
2.60401e-05
2.60401e-05
2.60402e-05
2.60402e-05
2.60403e-05
2.60405e-05
2.60406e-05
2.60409e-05
2.60411e-05
2.60414e-05
2.60417e-05
2.60418e-05
2.60419e-05
2.60415e-05
2.60409e-05
2.60412e-05
2.60431e-05
2.60455e-05
2.60477e-05
2.60503e-05
2.60522e-05
2.60535e-05
2.6054e-05
2.60533e-05
2.60514e-05
2.60472e-05
2.60425e-05
2.60499e-05
2.60651e-05
2.60848e-05
2.61122e-05
2.61423e-05
2.61782e-05
2.6206e-05
2.62304e-05
2.62263e-05
2.6203e-05
2.61447e-05
2.60751e-05
2.604e-05
2.604e-05
2.604e-05
2.604e-05
2.604e-05
2.604e-05
2.604e-05
2.604e-05
2.60401e-05