/*--------------------------------*- C++ -*----------------------------------*\
  =========                 |
  \\      /  F ield         | OpenFOAM: The Open Source CFD Toolbox
   \\    /   O peration     | Website:  https://openfoam.org
    \\  /    A nd           | Version:  10
     \\/     M anipulation  |
\*---------------------------------------------------------------------------*/
FoamFile
{
    format      ascii;
    class       volScalarField;
    location    "5";
    object      p;
}
// * * * * * * * * * * * * * * * * * * * * * * * * * * * * * * * * * * * * * //

dimensions      [0 2 -2 0 0 0 0];

internalField   nonuniform List<scalar> 
38016
(
7.2761
3.88776
5.38869
5.05261
4.63306
4.31311
3.2516
1.06675
-2.42648
-8.14917
-18.9788
-38.2812
-64.375
-94.1664
-115.718
-116.659
-80.9298
18.2737
176.453
378.666
595.602
806.855
806.376
883.51
802.689
761.898
696.307
658.617
621.541
591.781
564.465
538.83
515.66
493.513
472.811
453.373
435.69
419.784
404.663
390.792
378.145
366.266
355.653
346.326
339.782
327.246
327.477
318.498
7.36101
3.93185
5.45444
5.10889
4.69086
4.35676
3.28908
1.06716
-2.46957
-8.30288
-19.3374
-38.9853
-65.5759
-96.0559
-118.332
-119.688
-83.5574
17.0764
178.082
384.236
605.533
820.092
823.972
902.352
821.599
779.022
711.898
673.338
635.594
605.309
577.604
551.744
528.386
506.261
485.644
466.425
449.077
433.563
419.073
405.919
394.109
383.256
373.823
365.991
361.36
349.631
352.369
344.87
7.446
3.9761
5.51977
5.16483
4.74842
4.40026
3.32629
1.06794
-2.51261
-8.4575
-19.6975
-39.6872
-66.7729
-97.9297
-120.917
-122.664
-86.0912
15.9969
179.829
389.867
615.365
832.589
840.744
918.894
837.981
793.867
725.386
686.194
648.101
617.605
589.851
564.097
540.875
519.075
498.832
480.111
463.367
448.534
434.953
422.828
412.201
402.783
395.022
389.234
386.656
376.353
380.744
373.556
7.53038
4.02016
5.58474
5.22062
4.80593
4.4438
3.36353
1.06954
-2.55515
-8.61257
-20.0592
-40.3898
-67.9735
-99.8063
-123.506
-125.64
-88.6047
14.9544
181.636
395.571
625.238
844.779
857.508
934.68
853.753
807.923
737.968
697.965
659.415
628.621
600.788
575.155
552.119
530.722
510.953
492.845
476.843
462.832
450.336
439.447
430.243
422.566
416.805
413.264
412.422
403.714
408.583
401.415
7.6154
4.06504
5.64984
5.27667
4.86384
4.48795
3.40141
1.07267
-2.59637
-8.76688
-20.4211
-41.0912
-69.1755
-101.682
-126.093
-128.607
-91.0776
13.9871
183.575
401.479
635.38
857.149
875.011
951.244
870.175
822.735
751.493
710.747
671.75
640.566
612.504
586.792
563.717
542.477
522.941
505.219
489.755
476.405
464.863
455.145
447.359
441.457
437.684
436.081
436.363
428.843
433.259
426.414
7.69956
4.10945
5.71444
5.33243
4.92156
4.53201
3.43922
1.07652
-2.63718
-8.92158
-20.7848
-41.7936
-70.3818
-103.562
-128.687
-131.579
-93.538
13.0494
185.572
407.469
645.596
869.413
892.655
967.523
886.162
836.875
764.24
722.646
683.175
651.601
623.364
597.657
574.662
553.719
534.584
517.459
502.768
490.371
480.1
471.925
465.966
462.187
460.567
460.777
461.945
455.566
459.657
453.634
7.78439
4.15472
5.77919
5.38847
4.97964
4.57665
3.47757
1.08177
-2.6769
-9.07572
-21.149
-42.4955
-71.5907
-105.443
-131.286
-134.552
-95.9807
12.1482
187.638
413.566
655.936
881.725
910.61
983.938
902.281
851.064
777.058
734.582
694.632
662.644
634.216
608.496
585.576
564.933
546.235
529.78
515.978
504.713
495.924
489.55
485.668
484.113
484.527
486.2
488.03
482.735
486.776
481.94
7.86837
4.19953
5.84345
5.44423
5.03756
4.62125
3.51595
1.08787
-2.71604
-9.22982
-21.5143
-43.1973
-72.8026
-107.328
-133.889
-137.528
-98.4114
11.2769
189.764
419.757
666.386
894.092
928.822
1000.43
918.433
865.185
789.821
746.42
705.994
673.579
644.966
619.245
596.429
576.141
557.973
542.329
529.603
519.72
512.68
508.38
506.759
507.396
509.626
512.432
514.847
510.648
514.943
511.451
7.95301
4.24518
5.90786
5.50027
5.09582
4.66643
3.55484
1.09535
-2.75416
-9.38332
-21.88
-43.8989
-74.0174
-109.215
-136.498
-140.509
-100.832
10.4322
191.946
426.038
676.944
906.557
947.265
1017.02
934.637
879.259
802.553
758.183
717.281
684.433
655.641
629.94
607.272
587.406
569.888
555.222
543.793
535.563
530.537
528.521
529.202
531.871
535.582
539.288
542.165
539.108
543.733
541.538
8.03681
4.29039
5.9718
5.55603
5.15391
4.71157
3.59375
1.10367
-2.7917
-9.53666
-22.2467
-44.6004
-75.235
-111.105
-139.114
-143.494
-103.245
9.61126
194.182
432.408
687.611
919.145
965.927
1033.72
950.893
893.283
815.257
769.873
728.502
695.217
666.261
640.61
618.151
598.795
582.078
568.587
558.705
552.392
549.603
549.961
552.828
557.245
562.084
566.45
569.705
567.717
572.614
571.601
8.12129
4.33642
6.03589
5.61207
5.21233
4.7573
3.63317
1.11336
-2.82824
-9.68928
-22.6137
-45.3013
-76.4551
-112.998
-141.736
-146.486
-105.655
8.80836
196.463
438.857
698.382
931.883
984.78
1050.53
967.204
907.257
827.936
781.491
739.657
705.94
676.841
651.281
629.112
610.377
594.639
582.547
574.465
570.309
569.893
572.566
577.371
583.142
588.795
593.556
597.158
596.059
601.215
601.229
8.20491
4.38201
6.0995
5.66784
5.27056
4.80299
3.67262
1.12392
-2.86417
-9.84156
-22.9813
-46.0019
-77.6777
-114.895
-144.366
-149.486
-108.065
8.01776
198.783
445.377
709.251
944.783
1003.82
1067.47
983.573
921.182
840.593
793.042
750.756
716.618
687.407
661.994
640.211
622.232
607.681
597.224
591.175
589.347
591.308
596.082
602.459
609.173
615.309
620.289
624.119
623.795
629.133
629.963
8.28922
4.42843
6.16327
5.72389
5.32911
4.84927
3.71258
1.13586
-2.89905
-9.99292
-23.3488
-46.7015
-78.9023
-116.795
-147.003
-152.497
-110.481
7.23027
201.128
451.954
720.208
957.861
1023.02
1084.53
1000
935.057
853.23
804.53
761.803
727.264
697.978
672.782
651.506
634.442
621.297
612.707
608.882
609.45
613.645
620.184
627.687
634.969
641.271
646.341
650.263
650.603
655.992
657.431
8.37268
4.4744
6.22656
5.77967
5.38747
4.89554
3.75258
1.14869
-2.93323
-10.1437
-23.7164
-47.4003
-80.1287
-118.698
-149.65
-155.52
-112.91
6.43632
203.484
458.571
731.24
971.118
1042.39
1101.72
1016.5
948.885
865.853
815.963
772.811
737.898
708.59
683.697
663.068
647.1
635.584
629.064
627.574
630.472
636.621
644.504
652.69
660.187
666.449
671.47
675.419
676.251
681.569
683.439
8.45682
4.52119
6.29002
5.83573
5.44615
4.9424
3.79311
1.16292
-2.96625
-10.2933
-24.0833
-48.0976
-81.3562
-120.604
-152.307
-158.559
-115.36
5.62223
205.834
465.206
742.329
984.556
1061.89
1119.06
1033.08
962.67
878.463
827.348
783.787
748.54
719.272
694.786
674.962
660.284
650.606
646.306
647.161
652.19
659.911
668.668
677.158
684.576
690.682
695.56
699.525
700.726
705.965
708.19
8.5401
4.56754
6.35299
5.89153
5.50462
4.98926
3.83371
1.17812
-2.99842
-10.4419
-24.4496
-48.7931
-82.5844
-122.513
-154.975
-161.619
-117.839
4.77344
208.155
471.833
753.453
998.163
1081.52
1136.53
1049.74
976.418
891.068
838.697
794.749
759.217
730.064
706.105
687.266
674.07
666.407
664.393
667.482
674.321
683.16
692.37
700.831
707.998
713.844
718.555
722.469
723.959
729.076
731.52
8.62406
4.6147
6.41613
5.94762
5.5634
5.03673
3.87487
1.19477
-3.02926
-10.589
-24.8145
-49.4861
-83.8124
-124.426
-157.656
-164.703
-120.358
3.87075
210.421
478.419
764.582
1011.93
1101.27
1154.15
1066.49
990.137
903.672
850.021
805.71
769.954
741.006
717.709
700.039
688.509
682.977
683.223
688.316
696.555
706.065
715.358
723.557
730.378
735.927
740.461
744.276
745.956
750.838
753.342
8.70718
4.66143
6.4788
6.00344
5.62197
5.08423
3.91614
1.21246
-3.05903
-10.7346
-25.1778
-50.1762
-85.0395
-126.341
-160.35
-167.816
-122.931
2.89333
212.599
484.928
775.683
1025.82
1121.12
1171.93
1083.35
1003.84
916.285
861.337
816.692
780.786
752.149
729.662
713.339
703.629
700.269
702.637
709.399
718.594
728.373
737.453
745.255
751.682
756.939
761.299
765.022
766.84
771.488
773.991
8.79098
4.70897
6.54163
6.05956
5.68085
5.13236
3.95799
1.23169
-3.0872
-10.8781
-25.5385
-50.8624
-86.2645
-128.259
-163.059
-170.966
-125.572
1.81493
214.653
491.312
786.711
1039.83
1141.06
1189.86
1100.33
1017.54
928.912
872.661
827.715
791.744
763.532
742.009
727.199
719.414
718.177
722.428
730.46
740.185
749.88
758.567
765.877
771.894
776.839
781.016
784.618
786.535
790.963
793.48
8.87391
4.75608
6.60397
6.11543
5.73951
5.18053
4.00003
1.25208
-3.11399
-11.0196
-25.8965
-51.5439
-87.4864
-130.178
-165.785
-174.159
-128.298
0.606953
216.54
497.518
797.617
1053.89
1161.06
1207.95
1117.46
1031.25
941.567
884.015
838.805
802.863
775.206
754.797
741.639
735.817
736.557
742.364
751.241
761.098
770.467
778.63
785.414
791.005
795.632
799.572
802.995
804.904
809.035
811.488
8.95751
4.804
6.66648
6.17159
5.79848
5.22937
4.04271
1.27413
-3.13884
-11.1582
-26.2504
-52.2194
-88.7034
-132.099
-168.529
-177.402
-131.127
-0.76503
218.208
503.485
808.338
1067.98
1181.09
1226.21
1134.73
1045
954.261
895.417
849.985
814.177
787.206
768.05
756.636
752.74
755.224
762.207
771.509
781.182
790.044
797.61
803.866
809.025
813.333
817.015
820.25
822.109
825.957
828.315
9.04026
4.85149
6.72851
6.22751
5.85723
5.27829
4.08564
1.2975
-3.16189
-11.2939
-26.5998
-52.888
-89.9143
-134.02
-171.294
-180.704
-134.082
-2.33835
219.6
509.141
818.804
1082.02
1201.13
1244.64
1152.19
1058.81
967.01
906.896
861.286
825.725
799.57
781.784
772.15
770.056
773.979
781.727
791.078
800.327
808.557
815.511
821.243
825.973
829.934
833.307
836.267
837.968
841.434
843.586
9.12369
4.89979
6.79071
6.28374
5.9163
5.3279
4.1293
1.32269
-3.18254
-11.4258
-26.9432
-53.5478
-91.1166
-135.94
-174.081
-184.076
-137.184
-4.15666
220.652
514.405
828.931
1095.96
1221.14
1263.26
1169.86
1072.72
979.832
918.472
872.733
837.534
812.312
795.98
788.093
787.603
792.61
800.725
809.812
818.437
825.986
832.309
837.556
841.891
845.554
848.644
851.358
852.867
855.941
857.857
9.20623
4.94767
6.85242
6.33972
5.97514
5.37764
4.17331
1.34942
-3.20086
-11.5538
-27.2801
-54.1974
-92.3084
-137.857
-176.892
-187.526
-140.462
-6.26685
221.291
519.186
838.625
1109.7
1241.07
1282.05
1187.76
1086.76
992.749
930.177
884.355
849.629
825.447
810.604
804.363
805.209
810.923
819.037
827.588
835.464
842.258
847.941
852.693
856.657
860.027
862.898
865.413
866.819
869.622
871.38
9.28944
4.99636
6.9143
6.39603
6.0343
5.42812
4.21815
1.37819
-3.21618
-11.6768
-27.6085
-54.8347
-93.4867
-139.77
-179.727
-191.066
-143.941
-8.72191
221.436
523.379
847.775
1123.15
1260.87
1301.02
1205.92
1100.98
1005.79
942.035
896.176
862.024
838.956
825.588
820.82
822.692
828.742
836.532
844.345
851.353
857.327
862.335
866.553
870.135
873.212
875.888
878.243
879.612
882.24
883.993
9.37177
5.04463
6.97568
6.45211
6.09325
5.47878
4.26346
1.40874
-3.22852
-11.7945
-27.9275
-55.4576
-94.6486
-141.676
-182.589
-194.706
-147.653
-11.5779
220.998
526.871
856.259
1136.21
1280.47
1320.17
1224.38
1115.42
1018.97
954.075
908.219
874.73
852.815
840.849
837.324
839.885
845.925
853.129
860.059
866.106
871.197
875.45
879.043
882.136
884.822
887.204
889.321
890.576
893.014
894.732
9.45476
5.0937
7.03725
6.50853
6.15252
5.53022
4.30971
1.44163
-3.23714
-11.9057
-28.2351
-56.0634
-95.7901
-143.571
-185.476
-198.457
-151.628
-14.8964
219.881
529.536
863.935
1148.74
1299.8
1339.49
1243.17
1130.13
1032.33
966.322
920.499
887.734
866.968
856.275
853.721
856.634
862.364
868.796
874.736
879.796
883.95
887.392
890.267
892.765
894.948
896.938
898.731
899.799
901.962
903.467
9.53685
5.14237
7.0983
6.56473
6.21159
5.58191
4.3566
1.47663
-3.24195
-12.0098
-28.53
-56.6494
-96.9075
-145.452
-188.39
-202.331
-155.899
-18.7407
217.983
531.238
870.654
1160.61
1318.76
1358.97
1262.33
1145.17
1045.91
978.803
933.028
901.023
881.355
871.755
869.871
872.816
877.993
883.513
888.439
892.504
895.75
898.371
900.521
902.354
903.956
905.41
906.734
907.437
909.133
910.297
9.61959
5.19184
7.15953
6.62128
6.27098
5.63444
4.40459
1.5143
-3.24217
-12.1057
-28.8096
-57.2121
-97.9956
-147.313
-191.327
-206.335
-160.496
-23.1773
215.194
531.83
876.243
1171.65
1337.24
1378.58
1281.88
1160.61
1059.75
991.543
945.809
914.561
895.893
887.166
885.648
888.341
892.772
897.309
901.226
904.348
906.764
908.645
910.166
911.44
912.57
913.587
914.539
914.919
916.223
917.094
9.70142
5.24091
7.22026
6.67763
6.33018
5.68728
4.45337
1.55446
-3.23765
-12.1925
-29.0723
-57.7481
-99.0491
-149.149
-194.286
-210.479
-165.452
-28.2721
211.404
531.159
880.523
1181.69
1355.13
1398.28
1301.86
1176.49
1073.88
1004.57
958.846
928.31
910.501
902.397
900.95
903.148
906.702
910.242
913.198
915.477
917.169
918.425
919.393
920.184
920.885
921.547
922.191
922.363
923.392
924.018
9.78389
5.29079
7.28117
6.73435
6.38974
5.74105
4.50343
1.59769
-3.22751
-12.2687
-29.3153
-58.2533
-100.062
-150.952
-197.26
-214.768
-170.793
-34.0919
206.497
529.061
883.292
1190.54
1372.26
1418.02
1322.29
1192.89
1088.36
1017.89
972.127
942.216
925.089
917.344
915.699
917.211
919.816
922.371
924.468
926.045
927.197
928.046
928.7
929.233
929.692
930.095
930.457
930.344
930.965
931.279
9.86543
5.34027
7.34156
6.79088
6.44911
5.7952
4.55449
1.64387
-3.21152
-12.3336
-29.5366
-58.7232
-101.026
-152.713
-200.242
-219.204
-176.547
-40.6993
200.36
525.371
884.344
1197.96
1388.47
1437.72
1343.17
1209.86
1103.23
1031.54
985.641
956.231
939.577
931.927
929.849
930.53
932.143
933.772
935.099
936.098
936.841
937.417
937.898
938.324
938.722
939.095
939.442
939.331
939.893
940.152
9.94759
5.39057
7.40214
6.8478
6.50884
5.85035
4.60703
1.69358
-3.18876
-12.3853
-29.7327
-59.1528
-101.934
-154.421
-203.221
-223.784
-182.732
-48.1529
192.88
519.916
883.456
1203.73
1403.55
1457.28
1364.5
1227.46
1118.55
1045.53
999.375
970.298
953.89
946.085
943.377
943.123
943.741
944.489
945.132
945.645
946.073
946.453
946.819
947.174
947.528
947.863
948.171
948.043
948.526
948.815
10.0288
5.44047
7.46219
6.90455
6.56842
5.90597
4.66079
1.74673
-3.15892
-12.4229
-29.9013
-59.5367
-102.777
-156.064
-206.185
-228.503
-189.36
-56.5022
183.954
512.532
880.401
1207.59
1417.28
1476.55
1386.25
1245.74
1134.36
1059.89
1013.32
984.372
967.976
959.782
956.284
955.027
954.654
954.552
954.55
954.609
954.719
954.87
955.047
955.236
955.416
955.591
955.727
955.468
955.806
956.048
10.1106
5.4912
7.52244
6.96171
6.62839
5.96267
4.71625
1.80391
-3.12102
-12.4444
-30.0388
-59.869
-103.545
-157.627
-209.115
-233.345
-196.436
-65.787
173.487
503.053
874.946
1209.26
1429.39
1495.37
1408.38
1264.74
1150.71
1074.64
1027.45
998.415
981.793
973.003
968.587
966.285
964.909
963.972
963.31
962.879
962.632
962.522
962.493
962.514
962.544
962.586
962.582
962.204
962.364
962.425
10.1914
5.54154
7.58215
7.01873
6.68821
6.01993
4.77317
1.86508
-3.07472
-12.4488
-30.1422
-60.1435
-104.226
-159.093
-211.989
-238.292
-203.953
-76.0324
161.401
491.329
866.861
1208.45
1439.59
1513.52
1430.79
1284.48
1167.66
1089.79
1041.78
1012.4
995.324
985.758
980.321
976.931
974.546
972.727
971.342
970.328
969.623
969.145
968.838
968.637
968.511
968.427
968.353
967.947
968.056
968.162
10.2728
5.5927
7.64206
7.07618
6.74845
6.07836
4.83203
1.93081
-3.01901
-12.434
-30.2076
-60.3533
-104.809
-160.442
-214.781
-243.313
-211.89
-87.2474
147.633
477.222
855.917
1204.86
1447.56
1530.72
1453.35
1304.96
1185.25
1105.37
1056.31
1026.33
1008.57
998.069
991.531
987.023
983.591
980.838
978.642
976.941
975.694
974.8
974.217
973.831
973.623
973.503
973.455
973.098
973.275
973.513
10.3532
5.64349
7.70143
7.13349
6.80858
6.13744
4.89259
2.00107
-2.95352
-12.3988
-30.2321
-60.4914
-105.28
-161.653
-217.46
-248.371
-220.214
-99.4201
132.147
460.617
841.903
1198.18
1452.94
1546.68
1475.91
1326.15
1203.5
1121.42
1071.04
1040.2
1021.55
1009.98
1002.28
996.624
992.127
988.397
985.313
982.812
980.864
979.384
978.349
977.653
977.265
977.078
977.048
976.803
977.124
977.532
10.4342
5.69511
7.76101
7.19126
6.86915
6.19777
4.95532
2.07643
-2.87728
-12.3411
-30.2114
-60.5504
-105.625
-162.703
-219.99
-253.419
-228.874
-112.517
114.933
441.424
824.621
1188.1
1455.34
1561.03
1498.24
1348
1222.46
1137.97
1085.99
1054.04
1034.3
1021.55
1012.63
1005.82
1000.28
995.6
991.673
988.416
985.789
983.72
982.174
981.044
980.293
979.815
979.568
979.169
979.347
979.667
10.5141
5.74637
7.82004
7.24891
6.92962
6.25883
5.01999
2.15684
-2.78992
-12.2598
-30.1425
-60.523
-105.831
-163.564
-222.33
-258.4
-237.806
-126.481
96.0131
419.589
803.905
1174.32
1454.37
1573.35
1520.06
1370.4
1242.11
1155.04
1101.21
1067.9
1046.89
1032.84
1022.66
1014.73
1008.17
1002.64
997.994
994.15
991.055
988.615
986.753
985.37
984.383
983.711
983.247
982.655
982.569
982.572
10.5944
5.79846
7.87926
7.30705
6.99057
6.32122
5.08706
2.24285
-2.69053
-12.153
-30.0214
-60.4014
-105.881
-164.211
-224.435
-263.25
-246.927
-141.226
75.442
395.093
779.615
1156.54
1449.62
1583.18
1541.03
1393.22
1262.45
1172.65
1116.73
1081.81
1059.36
1043.93
1032.49
1023.44
1015.94
1009.66
1004.44
1000.18
996.811
994.232
992.31
990.951
990.007
989.402
989
988.488
988.446
988.522
10.6738
5.85021
7.93796
7.36508
7.05145
6.38442
5.15628
2.33436
-2.57883
-12.0194
-29.8452
-60.1785
-105.762
-164.615
-226.257
-267.893
-256.136
-156.643
53.3132
367.961
751.662
1134.5
1440.66
1590.03
1560.77
1416.26
1283.43
1190.84
1132.59
1095.85
1071.81
1054.92
1042.2
1032.07
1023.72
1016.79
1011.11
1006.53
1002.92
1000.19
998.129
996.688
995.681
995.069
994.674
994.203
994.182
994.287
10.7535
5.9028
7.99685
7.42362
7.11284
6.44901
5.22809
2.43188
-2.45403
-11.8576
-29.6103
-59.8472
-105.458
-164.747
-227.745
-272.248
-265.321
-172.595
29.7566
338.267
719.998
1107.98
1427.09
1593.37
1578.82
1439.27
1304.98
1209.6
1148.84
1110.07
1084.3
1065.89
1051.88
1040.72
1031.6
1024.16
1018.14
1013.46
1009.8
1007.11
1005.09
1003.67
1002.62
1001.92
1001.38
1000.72
1000.46
1000.32
10.8322
5.95505
8.0552
7.48208
7.17417
6.51446
5.30222
2.53526
-2.31598
-11.6665
-29.3144
-59.4013
-104.955
-164.579
-228.847
-276.23
-274.355
-188.921
4.94132
306.135
684.639
1076.8
1408.52
1592.66
1594.68
1461.95
1326.98
1228.92
1165.51
1124.55
1096.92
1076.94
1061.64
1049.49
1039.64
1031.72
1025.42
1020.57
1016.87
1014.16
1012.2
1010.84
1009.93
1009.34
1008.95
1008.42
1008.28
1008.26
10.9112
6.00815
8.11375
7.54105
7.23604
6.58135
5.37909
2.64493
-2.16407
-11.4451
-28.9549
-58.8352
-104.242
-164.084
-229.513
-279.749
-283.101
-205.439
-20.9283
271.741
645.66
1040.85
1384.64
1587.37
1607.81
1483.92
1349.28
1248.77
1182.63
1139.33
1109.74
1088.13
1071.54
1058.41
1047.88
1039.51
1032.96
1027.93
1024.17
1021.4
1019.43
1018.03
1017.09
1016.46
1016.04
1015.45
1015.26
1015.25
10.9891
6.06093
8.17176
7.59995
7.29786
6.64914
5.45841
2.76064
-1.99837
-11.1929
-28.5305
-58.1444
-103.307
-163.238
-229.692
-282.716
-291.415
-221.95
-47.6129
235.314
603.206
1000.09
1355.15
1576.98
1617.63
1504.78
1371.65
1269.08
1200.2
1154.47
1122.82
1099.54
1081.64
1067.52
1056.3
1047.43
1040.53
1035.23
1031.24
1028.28
1026.14
1024.61
1023.56
1022.83
1022.32
1021.66
1021.4
1021.37
11.0673
6.11458
8.22999
7.65938
7.36026
6.7184
5.54053
2.88274
-1.81849
-10.9092
-28.0396
-57.3256
-102.141
-162.02
-229.34
-285.045
-299.153
-238.24
-74.8454
197.131
557.492
954.571
1319.86
1561.03
1623.57
1524.04
1393.85
1289.75
1218.21
1169.99
1136.21
1111.21
1091.95
1076.82
1064.86
1055.46
1048.14
1042.49
1038.2
1034.95
1032.54
1030.77
1029.49
1028.56
1027.86
1027.03
1026.62
1026.47
11.1443
6.16791
8.28766
7.71876
7.42262
6.78856
5.62515
3.01089
-1.62474
-10.5943
-27.4823
-56.3773
-100.74
-160.414
-228.418
-286.656
-306.172
-254.091
-102.334
157.52
508.805
904.42
1278.67
1539.09
1625.04
1541.19
1415.55
1310.62
1236.63
1185.9
1149.94
1123.15
1102.49
1086.28
1073.53
1063.53
1055.74
1049.7
1045.05
1041.47
1038.75
1036.67
1035.1
1033.91
1032.97
1031.89
1031.24
1030.9
11.2215
6.22213
8.34554
7.77868
7.48556
6.86017
5.71258
3.1453
-1.41704
-10.2483
-26.8588
-55.2993
-99.1003
-158.409
-226.895
-287.477
-312.338
-269.284
-129.773
116.847
457.503
849.877
1231.58
1510.87
1621.48
1555.69
1436.39
1331.52
1255.37
1202.19
1164.01
1135.37
1113.23
1095.87
1082.23
1071.56
1063.26
1056.82
1051.85
1048
1045.03
1042.72
1040.92
1039.49
1038.31
1036.97
1036.06
1035.5
11.2974
6.27605
8.40287
7.83853
7.54848
6.93267
5.80246
3.28554
-1.196
-9.87192
-26.1707
-54.0937
-97.2231
-155.999
-224.75
-287.452
-317.528
-283.605
-156.844
75.5136
404.01
791.275
1178.71
1476.14
1612.4
1566.98
1455.97
1352.21
1274.33
1218.81
1178.4
1147.87
1124.16
1105.54
1090.9
1079.44
1070.54
1063.67
1058.38
1054.33
1051.24
1048.85
1047.01
1045.54
1044.33
1042.92
1041.93
1041.31
11.3735
6.33086
8.46043
7.89895
7.61199
7.00659
5.89507
3.4317
-0.961808
-9.46607
-25.4199
-52.764
-95.1131
-153.188
-221.972
-286.537
-321.637
-296.856
-183.234
33.9433
348.805
729.045
1120.31
1434.82
1597.37
1574.51
1473.85
1372.43
1293.36
1235.68
1193.09
1160.61
1135.24
1115.25
1099.49
1087.12
1077.47
1070
1064.23
1059.82
1056.46
1053.89
1051.93
1050.44
1049.24
1047.88
1046.97
1046.54
11.4482
6.38541
8.51741
7.9593
7.67547
7.08134
5.99
3.58325
-0.715366
-9.03244
-24.6098
-51.316
-92.7794
-149.985
-218.563
-284.706
-324.58
-308.856
-208.634
-7.42413
292.419
663.71
1056.74
1386.96
1576.06
1577.76
1489.57
1391.85
1312.28
1252.72
1208.02
1173.56
1146.47
1125.01
1108
1094.6
1084.1
1075.94
1069.6
1064.72
1060.96
1058.07
1055.82
1054.09
1052.64
1051.04
1049.97
1049.5
11.523
6.44085
8.57463
8.02022
7.73955
7.15744
6.0875
3.74015
-0.457156
-8.57248
-23.7441
-49.757
-90.2343
-146.406
-214.536
-281.952
-326.298
-319.45
-232.757
-48.1483
235.416
595.87
988.513
1332.76
1548.25
1576.25
1502.66
1410.14
1330.87
1269.8
1223.1
1186.69
1157.82
1134.79
1116.44
1101.89
1090.42
1081.44
1074.42
1069.01
1064.82
1061.63
1059.17
1057.29
1055.78
1054.18
1053.15
1052.7
11.5964
6.49606
8.63128
8.08106
7.80359
7.23429
6.18712
3.90176
-0.188353
-8.08858
-22.8277
-48.0964
-87.4942
-142.475
-209.917
-278.287
-326.755
-328.515
-255.339
-87.7976
178.382
526.193
916.224
1272.55
1513.86
1569.57
1512.65
1426.94
1348.89
1286.75
1238.27
1199.94
1169.26
1144.61
1124.84
1109.07
1096.55
1086.68
1078.9
1072.83
1068.09
1064.42
1061.56
1059.37
1057.58
1055.71
1054.45
1053.85
11.6696
6.55218
8.68816
8.14246
7.86823
7.3124
6.28906
4.06796
0.0903321
-7.58282
-21.8657
-46.3449
-84.5782
-138.221
-204.744
-273.742
-325.946
-335.958
-276.15
-125.962
121.909
455.395
840.581
1206.82
1472.96
1557.41
1519.13
1441.87
1366.07
1303.41
1253.4
1213.26
1180.77
1154.46
1133.21
1116.17
1102.61
1091.9
1083.47
1076.88
1071.73
1067.72
1064.57
1062.11
1060.09
1057.99
1056.53
1055.71
11.7414
6.60808
8.74445
8.20379
7.93282
7.39115
6.39285
4.23805
0.377526
-7.05812
-20.8644
-44.5146
-81.5091
-133.682
-199.064
-268.366
-323.889
-341.724
-295
-162.264
66.578
384.221
762.368
1136.18
1425.76
1539.56
1521.7
1454.56
1382.13
1319.58
1268.37
1226.58
1192.34
1164.34
1141.56
1123.18
1108.51
1096.91
1087.83
1080.82
1075.42
1071.3
1068.15
1065.73
1063.76
1061.65
1060.15
1059.31
11.813
6.66492
8.80097
8.26567
7.99799
7.47104
6.49865
4.41184
0.67235
-6.51696
-19.8298
-42.6185
-78.3107
-128.896
-192.935
-262.222
-320.63
-345.793
-311.74
-196.368
12.9429
313.421
682.429
1061.36
1372.6
1515.94
1520.06
1464.67
1396.78
1335.06
1283.06
1239.83
1203.95
1174.3
1149.99
1130.24
1114.39
1101.79
1091.92
1084.33
1078.56
1074.25
1071.11
1068.86
1067.22
1065.55
1064.64
1064.48
11.8829
6.72156
8.8569
8.32745
8.06309
7.55145
6.60598
4.58855
0.973304
-5.96257
-18.7689
-40.6705
-75.0096
-123.908
-186.421
-255.39
-316.237
-348.178
-326.27
-227.989
-38.4841
243.733
601.638
983.172
1313.98
1486.58
1513.94
1471.87
1409.74
1349.62
1297.31
1252.94
1215.58
1184.39
1158.64
1137.58
1120.56
1106.92
1096.11
1087.61
1081
1075.89
1072.01
1069.1
1066.86
1064.64
1063.24
1062.67
11.9525
6.77917
8.91307
8.38978
8.12876
7.63286
6.71497
4.76796
1.27943
-5.39764
-17.6882
-38.6844
-71.6321
-118.764
-179.59
-247.957
-310.798
-348.928
-338.533
-256.899
-87.2451
175.86
520.876
902.507
1250.53
1451.66
1503.21
1475.88
1420.72
1363.05
1310.97
1265.81
1227.21
1194.67
1167.6
1145.4
1127.42
1113.04
1101.67
1092.73
1085.79
1080.34
1076.15
1072.86
1070.21
1067.44
1065.39
1063.98
12.0204
6.8366
8.96861
8.452
8.19434
7.71466
6.82514
4.94931
1.58921
-4.82544
-16.5947
-36.6745
-68.2057
-113.51
-172.515
-240.019
-304.419
-348.119
-348.52
-282.929
-132.947
110.451
441.007
820.292
1182.96
1411.47
1487.8
1476.48
1429.47
1375.12
1323.88
1278.35
1238.82
1205.12
1176.93
1153.7
1134.91
1119.85
1108
1098.7
1091.61
1086.09
1081.99
1078.85
1076.48
1073.97
1072.24
1071.26
12.0878
6.89502
9.02438
8.51475
8.26047
7.79731
6.93661
5.13238
1.90173
-4.24858
-15.4947
-34.6543
-64.7561
-108.191
-165.266
-231.676
-297.212
-345.85
-356.262
-305.968
-175.267
48.0909
362.861
737.472
1112.09
1366.43
1467.75
1473.5
1435.77
1385.64
1335.88
1290.46
1250.33
1215.76
1186.64
1162.58
1143.14
1127.6
1115.38
1105.85
1098.55
1092.9
1088.61
1085.31
1082.74
1079.97
1077.94
1076.79
12.1533
6.95331
9.07953
8.57735
8.32649
7.88022
7.04892
5.31643
2.21556
-3.67004
-14.3947
-32.6369
-61.3087
-102.852
-157.915
-223.026
-289.3
-342.241
-361.826
-325.964
-213.956
-10.715
287.202
654.98
1038.77
1317.06
1443.21
1466.84
1439.43
1394.4
1346.81
1302
1261.68
1226.52
1196.68
1171.96
1151.91
1135.95
1123.39
1113.67
1106.22
1100.51
1096.13
1092.81
1090.2
1087.37
1085.28
1084.09
12.2182
7.01261
9.13491
8.64049
8.39303
7.96386
7.16221
5.50132
2.52993
-3.0921
-13.2999
-30.6337
-57.8857
-97.533
-150.526
-214.166
-280.805
-337.421
-365.311
-342.923
-248.846
-65.5536
214.714
573.703
963.891
1263.95
1414.41
1456.49
1440.32
1401.24
1356.52
1312.88
1272.8
1237.39
1207.07
1181.81
1161.27
1144.9
1132.01
1121.98
1114.26
1108.35
1103.76
1100.21
1097.4
1094.31
1091.97
1090.65
12.2811
7.07181
9.18961
8.70345
8.45945
8.04763
7.276
5.68634
2.8436
-2.51729
-12.2159
-28.6556
-54.5081
-92.271
-143.161
-205.186
-271.85
-331.535
-366.85
-356.907
-279.859
-116.126
145.961
494.433
888.307
1207.74
1381.64
1442.46
1438.32
1406.02
1364.85
1322.97
1283.6
1248.29
1217.74
1192.11
1171.16
1154.4
1141.17
1130.8
1122.75
1116.55
1111.7
1107.9
1104.86
1101.51
1098.92
1097.36
12.3431
7.13203
9.24453
8.76694
8.52638
8.132
7.39052
5.8715
3.15616
-1.94701
-11.1459
-26.7102
-51.1909
-87.094
-135.867
-196.163
-262.545
-324.72
-366.59
-368.032
-307.007
-162.262
81.3531
417.818
812.78
1149.05
1345.24
1424.86
1433.39
1408.62
1371.71
1332.16
1293.99
1259.16
1228.63
1202.79
1181.48
1164.3
1150.64
1139.88
1131.43
1124.88
1119.72
1115.64
1112.35
1108.72
1105.86
1104.13
12.403
7.19221
9.29876
8.83021
8.59317
8.21642
7.50529
6.05619
3.46656
-1.3833
-10.0943
-24.8054
-47.9494
-82.0291
-128.691
-187.169
-252.995
-317.118
-364.692
-376.439
-330.349
-203.861
21.2232
344.439
738.038
1088.53
1305.6
1403.82
1425.5
1408.96
1376.98
1340.37
1303.91
1269.97
1239.77
1213.88
1192.33
1174.77
1160.69
1149.52
1140.69
1133.78
1128.36
1124.05
1120.58
1116.74
1113.69
1111.81
12.4618
7.25345
9.35322
8.89398
8.66045
8.30133
7.62052
6.24038
3.77438
-0.827538
-9.06395
-22.9482
-44.7967
-77.1004
-121.674
-178.273
-243.301
-308.866
-361.319
-382.284
-349.974
-240.858
-34.1335
274.854
664.83
1026.87
1263.18
1379.55
1414.7
1407
1380.58
1347.5
1313.28
1280.66
1251.11
1225.4
1203.7
1185.82
1171.31
1159.7
1150.41
1143.04
1137.2
1132.56
1128.8
1124.65
1121.37
1119.43
12.5184
7.31468
9.40692
8.95753
8.72757
8.38618
7.73572
6.42345
4.07863
-0.281473
-8.05849
-21.1448
-41.7445
-72.3284
-114.851
-169.531
-233.556
-300.094
-356.638
-385.747
-366.021
-273.272
-84.5265
209.516
593.821
964.742
1218.45
1352.29
1401.05
1402.69
1382.42
1353.45
1322.01
1291.17
1262.63
1237.37
1215.71
1197.65
1182.82
1170.82
1161.14
1153.37
1147.13
1142.11
1137.98
1133.37
1129.7
1127.43
12.5737
7.37698
9.46082
9.02156
8.79518
8.47141
7.85115
6.60549
4.37916
0.25406
-7.07967
-19.3993
-38.8005
-67.7279
-108.25
-160.991
-223.836
-290.923
-350.815
-387.022
-378.666
-301.186
-129.858
148.77
525.592
902.789
1171.92
1322.33
1384.66
1396.03
1382.45
1358.15
1330
1301.43
1274.31
1249.79
1228.42
1210.31
1195.28
1182.95
1172.92
1164.79
1158.18
1152.79
1148.35
1143.37
1139.32
1136.66
12.6265
7.43934
9.51395
9.0853
8.8626
8.55649
7.96636
6.78598
4.67518
0.777825
-6.12982
-17.7154
-35.9715
-63.3106
-101.892
-152.693
-214.211
-281.463
-344.011
-386.312
-388.117
-324.747
-170.121
92.8583
460.628
841.591
1124.06
1289.97
1365.66
1387.04
1380.62
1361.5
1337.18
1311.36
1286.1
1262.67
1241.83
1223.87
1208.75
1196.19
1185.86
1177.39
1170.43
1164.67
1159.86
1154.47
1150.03
1146.97
12.6778
7.50282
9.56727
9.14951
8.93049
8.64187
8.08164
6.96509
4.96673
1.28945
-5.20966
-16.095
-33.2609
-59.0834
-95.7904
-144.665
-204.736
-271.811
-336.376
-383.82
-394.602
-344.143
-205.379
41.9281
399.321
781.679
1075.35
1255.53
1344.21
1375.77
1376.91
1363.44
1343.45
1320.89
1297.93
1275.99
1255.98
1238.39
1223.33
1210.66
1200.12
1191.39
1184.16
1178.11
1173.03
1167.29
1162.47
1159.08
12.7265
7.56638
9.61972
9.21341
8.99818
8.72703
8.19649
7.14228
5.25312
1.78805
-4.32056
-14.5399
-30.6712
-55.0505
-89.9557
-136.928
-195.457
-262.055
-328.052
-379.747
-398.363
-359.606
-235.77
-3.96915
341.966
723.507
1026.25
1219.35
1320.52
1362.3
1371.31
1363.91
1348.71
1329.91
1309.74
1289.7
1270.87
1253.88
1239.05
1226.34
1215.62
1206.59
1199.03
1192.62
1187.19
1181.02
1175.79
1172.09
12.7734
7.63108
9.67234
9.27778
9.06632
8.8124
8.31127
7.31784
5.53462
2.2737
-3.46232
-13.0498
-28.2021
-51.2123
-84.3907
-129.494
-186.408
-252.264
-319.167
-374.285
-399.644
-371.389
-261.478
-44.8576
288.77
667.467
977.165
1181.76
1294.77
1346.71
1363.82
1362.86
1352.89
1338.31
1321.41
1303.73
1286.44
1270.36
1255.96
1243.37
1232.54
1223.27
1215.35
1208.53
1202.64
1195.91
1190.14
1185.93
12.8176
7.69593
9.72408
9.34175
9.13425
8.8975
8.42551
7.49131
5.81069
2.74588
-2.63552
-11.6249
-25.853
-47.5673
-79.0958
-122.372
-177.614
-242.501
-309.837
-367.618
-398.692
-379.77
-282.741
-80.8381
239.846
613.869
928.477
1143.08
1267.18
1329.09
1354.45
1360.24
1355.88
1345.98
1332.83
1317.97
1302.62
1287.77
1274.03
1261.73
1250.91
1241.47
1233.22
1225.95
1219.52
1212.08
1205.5
1200.43
12.8596
7.76196
9.77595
9.40616
9.2026
8.98276
8.5396
7.66303
6.08172
3.20499
-1.83925
-10.2634
-23.6208
-44.1111
-74.066
-115.561
-169.092
-232.813
-300.162
-359.916
-395.747
-385.028
-299.82
-112.066
195.238
562.962
880.524
1103.62
1237.97
1309.57
1343.24
1356.01
1357.61
1352.78
1343.84
1332.26
1319.29
1306
1293.2
1281.36
1270.7
1261.23
1252.84
1245.34
1238.62
1230.76
1223.67
1218.05
12.8987
7.82818
9.82683
9.47017
9.27074
9.06769
8.65301
7.83252
6.34724
3.6507
-1.07353
-8.96449