/*--------------------------------*- C++ -*----------------------------------*\
  =========                 |
  \\      /  F ield         | OpenFOAM: The Open Source CFD Toolbox
   \\    /   O peration     | Website:  https://openfoam.org
    \\  /    A nd           | Version:  10
     \\/     M anipulation  |
\*---------------------------------------------------------------------------*/
FoamFile
{
    format      ascii;
    class       surfaceScalarField;
    location    "5";
    object      phi;
}
// * * * * * * * * * * * * * * * * * * * * * * * * * * * * * * * * * * * * * //

dimensions      [0 3 -1 0 0 0 0];

internalField   nonuniform List<scalar> 
75600
(
2.16022
-1217.81
1218.25
1.79343
-1008.23
1008.6
1.49007
-834.756
835.06
1.23917
-691.159
691.41
1.03159
-572.299
572.507
0.859829
-473.925
474.096
0.717667
-392.514
392.656
0.599974
-325.153
325.27
0.502507
-269.43
269.528
0.421757
-223.351
223.432
0.354833
-185.267
185.334
0.299303
-153.814
153.869
0.25319
-127.866
127.912
0.214817
-106.494
106.532
0.182826
-88.9359
88.9679
0.156078
-74.5632
74.59
0.133597
-62.862
62.8845
0.114643
-53.4134
53.4323
0.0985331
-45.8776
45.8937
0.0847226
-39.9827
39.9965
0.0726355
-35.5171
35.5292
0.0621064
-32.3199
32.3317
0.0522422
-30.2866
30.2951
0.0432017
-29.3443
29.3536
0.0343856
-29.3857
29.3943
0.0273656
-23.59
23.5971
0.0217622
-18.9338
18.9393
0.0172896
-15.1904
15.1949
0.0137091
-12.1807
12.1843
0.0108446
-9.76226
9.76512
0.00855335
-7.82094
7.82323
0.00672577
-6.26417
6.26599
0.00527598
-5.0169
5.01835
0.00413539
-4.01836
4.0195
0.00325016
-3.2195
3.22038
0.00257714
-2.5808
2.58147
0.00208069
-2.07054
2.07104
0.0017328
-1.66331
1.66366
0.00150929
-1.33876
1.33898
0.00138992
-1.0807
1.08082
0.00135752
-0.876249
0.876282
0.0013967
-0.715247
0.715207
0.00149647
-0.589706
0.589606
0.00164889
-0.493448
0.493296
0.00183911
-0.421763
0.421574
0.00212124
-0.371233
0.370951
0.00238493
-0.33946
0.339197
-0.325336
0.324799
0.00292163
2.18773
-1217.36
1.81662
-1007.86
1.50951
-834.449
1.25536
-690.905
1.045
-572.089
0.870875
-473.751
0.726706
-392.369
0.607326
-325.033
0.508439
-269.331
0.426506
-223.27
0.358602
-185.199
0.302264
-153.757
0.255493
-127.819
0.216593
-106.455
0.184188
-88.9034
0.157127
-74.5361
0.134423
-62.8393
0.115332
-53.3943
0.0991671
-45.8614
0.085382
-39.9689
0.0733977
-35.5051
0.0630718
-32.309
0.0534785
-30.2776
0.0448213
-29.3355
0.0364854
-29.3775
0.0298367
-23.5833
0.0245291
-18.9286
0.0203002
-15.1862
0.0169233
-12.1773
0.0142326
-9.75957
0.0120931
-7.8188
0.010403
-6.26248
0.00908387
-5.01558
0.00807393
-4.01735
0.00732545
-3.21875
0.00680033
-2.58028
0.00646623
-2.07021
0.00629758
-1.66315
0.00627044
-1.33873
0.00636308
-1.08079
0.00655627
-0.876442
0.00683123
-0.715521
0.00717438
-0.590049
0.00757478
-0.493848
0.00801217
-0.422201
0.00856644
-0.371787
0.00908726
-0.339981
-0.3261
0.00985217
2.21702
-1216.9
1.84097
-1007.48
1.52952
-834.138
1.27161
-690.647
1.05802
-571.875
0.881126
-473.574
0.734612
-392.223
0.613245
-324.912
0.512694
-269.231
0.429369
-223.186
0.36031
-185.13
0.303022
-153.7
0.255479
-127.771
0.21596
-106.416
0.183073
-88.8705
0.155651
-74.5086
0.132697
-62.8164
0.11346
-53.375
0.0972478
-45.8452
0.0835163
-39.9552
0.0716816
-35.4933
0.061627
-32.2983
0.0523906
-30.2691
0.0442349
-29.3273
0.036532
-29.3699
0.0303751
-23.5772
0.0254561
-18.9237
0.021545
-15.1823
0.0184303
-12.1742
0.0159623
-9.7571
0.0140165
-7.81686
0.0125017
-6.26096
0.0113496
-5.01443
0.0105073
-4.01651
0.0099343
-3.21818
0.00959848
-2.57994
0.00947103
-2.07008
0.00952826
-1.6632
0.0097448
-1.33895
0.0100953
-1.08115
0.0105561
-0.876903
0.0111017
-0.716067
0.0117123
-0.590659
0.0123675
-0.494503
0.0130497
-0.422882
0.0138254
-0.372562
0.0145749
-0.34073
-0.326995
0.0154695
2.24834
-1216.44
1.86691
-1007.1
1.55078
-833.822
1.28885
-690.385
1.07181
-571.658
0.89199
-473.394
0.742993
-392.074
0.61954
-324.789
0.517234
-269.128
0.432447
-223.101
0.362174
-185.06
0.303886
-153.642
0.255528
-127.723
0.215352
-106.376
0.181947
-88.8371
0.15413
-74.4808
0.130892
-62.7931
0.111475
-53.3556
0.0951804
-45.8289
0.0814627
-39.9414
0.0697335
-35.4816
0.0598994
-32.288
0.0509633
-30.2606
0.0432304
-29.3195
0.0360596
-29.3628
0.0303128
-23.5714
0.0257162
-18.9192
0.022071
-15.1786
0.0191778
-12.1713
0.0169014
-9.75482
0.0151251
-7.81508
0.0137672
-6.25961
0.0127678
-5.01343
0.0120814
-4.01582
0.0116732
-3.21777
0.0115149
-2.57978
0.0115795
-2.07015
0.0118417
-1.66347
0.0122724
-1.33938
0.0128389
-1.08171
0.0135099
-0.877574
0.0142498
-0.716807
0.0150277
-0.591437
0.0158132
-0.495288
0.0165973
-0.423666
0.0174058
-0.37337
0.0181977
-0.341521
-0.327811
0.0190142
2.2818
-1215.98
1.89459
-1006.71
1.57352
-833.501
1.30737
-690.119
1.08675
-571.437
0.903908
-473.211
0.752368
-391.922
0.626778
-324.663
0.522689
-269.024
0.436414
-223.015
0.364908
-184.988
0.305601
-153.582
0.256408
-127.674
0.215554
-106.335
0.181604
-88.8031
0.153361
-74.4525
0.1298
-62.7696
0.110153
-53.3359
0.0937159
-45.8125
0.079938
-39.9277
0.0682246
-35.4698
0.0584951
-32.2778
0.0497246
-30.2524
0.0422472
-29.3119
0.0354085
-29.3561
0.0299122
-23.5658
0.0255135
-18.9148
0.0220379
-15.1752
0.0192924
-12.1686
0.0171513
-9.75268
0.0155019
-7.81343
0.0142678
-6.25837
0.0133939
-5.01256
0.0128391
-4.01527
0.0125709
-3.2175
0.0125619
-2.57977
0.0127832
-2.07037
0.0132043
-1.66389
0.0137887
-1.33996
0.0144937
-1.08242
0.0152766
-0.878356
0.0160904
-0.71762
0.0168934
-0.592239
0.017653
-0.496047
0.018367
-0.424379
0.0190307
-0.374033
0.0196377
-0.342128
-0.328319
0.0201461
2.31768
-1215.5
1.92441
-1006.32
1.59817
-833.174
1.32766
-689.848
1.10335
-571.213
0.917407
-473.025
0.763268
-391.768
0.635503
-324.535
0.529598
-268.918
0.441813
-222.927
0.369053
-184.915
0.308711
-153.522
0.258666
-127.624
0.217116
-106.293
0.182603
-88.7686
0.153911
-74.4238
0.130001
-62.7457
0.110092
-53.316
0.0934737
-45.7959
0.0795882
-39.9138
0.0678354
-35.4581
0.0581397
-32.2677
0.0494552
-30.2441
0.0421318
-29.3045
0.0355029
-29.3495
0.030162
-23.5605
0.0258871
-18.9106
0.0225246
-15.1718
0.0198837
-12.1659
0.0178452
-9.75064
0.0162974
-7.81188
0.0151674
-6.25724
0.0144024
-5.01179
0.0139638
-4.01483
0.0138189
-3.21735
0.0139382
-2.5799
0.014288
-2.07072
0.0148289
-1.66443
0.0155141
-1.34065
0.0162881
-1.08319
0.0170953
-0.879163
0.0178792
-0.718403
0.0185933
-0.592952
0.0192122
-0.496666
0.019734
-0.424901
0.0201441
-0.374443
0.0204356
-0.342419
-0.328425
0.0205418
2.35602
-1215.02
1.95629
-1005.92
1.62459
-832.843
1.34946
-689.573
1.12128
-570.985
0.932077
-472.836
0.775211
-391.611
0.645169
-324.405
0.537367
-268.811
0.448005
-222.838
0.373937
-184.841
0.312513
-153.461
0.261577
-127.573
0.219298
-106.251
0.184192
-88.7334
0.155023
-74.3946
0.130736
-62.7214
0.110539
-53.2958
0.0937116
-45.779
0.0796892
-39.8997
0.0678642
-35.4462
0.0581634
-32.2577
0.0495206
-30.2359
0.0422959
-29.2972
0.0358094
-29.3431
0.0305695
-23.5552
0.0263759
-18.9064
0.0230956
-15.1685
0.0205377
-12.1634
0.0185875
-9.74869
0.0171329
-7.81043
0.0161023
-6.25621
0.0154436
-5.01114
0.0151185
-4.0145
0.015092
-3.21733
0.0153295
-2.58013
0.0157894
-2.07118
0.0164195
-1.66506
0.0171604
-1.34139
0.0179422
-1.08397
0.0186977
-0.879918
0.0193666
-0.719071
0.0199074
-0.593493
0.0203057
-0.497064
0.0205601
-0.425155
0.0206547
-0.374538
0.020575
-0.342339
-0.328099
0.0202494
2.39692
-1214.53
1.99034
-1005.51
1.65285
-832.505
1.37284
-689.293
1.14056
-570.753
0.947929
-472.643
0.788198
-391.452
0.655767
-324.273
0.545977
-268.701
0.454962
-222.747
0.379525
-184.766
0.316968
-153.398
0.265099
-127.521
0.222053
-106.208
0.186322
-88.6977
0.156648
-74.3649
0.131958
-62.6967
0.111447
-53.2753
0.0943855
-45.762
0.0801995
-39.8855
0.0682746
-35.4343
0.058537
-32.2477
0.0498989
-30.2275
0.0427275
-29.29
0.0363265
-29.3368
0.0311408
-23.55
0.0269913
-18.9023
0.0237666
-15.1653
0.0212736
-12.1609
0.0194008
-9.74682
0.0180331
-7.80906
0.0170989
-6.25528
0.0165445
-5.01058
0.0163302
-4.01429
0.0164152
-3.21741
0.0167571
-2.58048
0.0173026
-2.07173
0.0179841
-1.66575
0.0187272
-1.34213
0.019449
-1.08469
0.0200763
-0.880545
0.020553
-0.719547
0.0208537
-0.593793
0.0209729
-0.497183
0.0209172
-0.4251
0.0206694
-0.37429
0.0202205
-0.34189
-0.327373
0.0194946
2.44051
-1214.03
2.02665
-1005.1
1.68302
-832.162
1.39786
-689.008
1.16126
-570.516
0.96503
-472.447
0.802297
-391.289
0.667363
-324.138
0.555494
-268.589
0.462753
-222.654
0.385886
-184.689
0.322146
-153.334
0.269301
-127.468
0.225453
-106.164
0.189065
-88.6613
0.158856
-74.3347
0.133735
-62.6716
0.112884
-53.2545
0.095559
-45.7446
0.0811801
-39.8711
0.0691232
-35.4223
0.0593104
-32.2376
0.0506329
-30.2192
0.0434606
-29.2828
0.0370757
-29.3304
0.0318877
-23.5448
0.0277373
-18.8981
0.0245356
-15.1621
0.0220851
-12.1584
0.0202749
-9.74501
0.0189851
-7.80778
0.0181414
-6.25444
0.017686
-5.01013
0.0175752
-4.01417
0.017759
-3.2176
0.0181836
-2.5809
0.0187803
-2.07233
0.0194644
-1.66643
0.0201468
-1.34282
0.0207362
-1.08528
0.0211623
-0.88097
0.0213846
-0.719769
0.0213963
-0.593805
0.0212071
-0.496994
0.0208278
-0.42472
0.0202524
-0.373714
0.0194737
-0.341111
-0.326318
0.0184198
2.48689
-1213.53
2.06531
-1004.68
1.7152
-831.811
1.42461
-688.717
1.18349
-570.275
0.983479
-472.247
0.817603
-391.123
0.68006
-324
0.566022
-268.475
0.471485
-222.56
0.393129
-184.61
0.328159
-153.269
0.274297
-127.414
0.229611
-106.119
0.192534
-88.6242
0.16176
-74.3039
0.136181
-62.646
0.114959
-53.2332
0.0973404
-45.727
0.0827344
-39.8565
0.0705079
-35.41
0.0605755
-32.2276
0.0518057
-30.2106
0.0445663
-29.2756
0.0381143
-29.324
0.0328558
-23.5396
0.0286503
-18.894
0.0254321
-15.1589
0.022996
-12.156
0.0212297
-9.74324
0.0200051
-7.80655
0.0192424
-6.25367
0.0188768
-5.00976
0.0188569
-4.01416
0.0191199
-3.21786
0.019597
-2.58138
0.0202014
-2.07293
0.0208307
-1.66706
0.0213849
-1.34337
0.0217732
-1.08567
0.0219382
-0.881134
0.0218651
-0.719696
0.0215642
-0.593504
0.0210651
-0.496495
0.0203809
-0.424036
0.0195202
-0.372853
0.0184741
-0.340063
-0.325025
0.0171819
2.53618
-1213.01
2.10645
-1004.25
1.74949
-831.454
1.45319
-688.421
1.20732
-570.029
1.00336
-472.043
0.834211
-390.954
0.693949
-323.86
0.577661
-268.359
0.481258
-222.463
0.401359
-184.531
0.335112
-153.203
0.280195
-127.359
0.234637
-106.074
0.19684
-88.5864
0.165472
-74.2725
0.139403
-62.62
0.117779
-53.2116
0.0998323
-45.709
0.0849612
-39.8416
0.0725216
-35.3976
0.0624175
-32.2173
0.0534928
-30.2019
0.0461085
-29.2682
0.0394907
-29.3174
0.034081
-23.5341
0.0297563
-18.8896
0.0264742
-15.1556
0.024019
-12.1536
0.0222729
-9.74149
0.0210966
-7.80538
0.0204017
-6.25298
0.0201118
-5.00947
0.0201645
-4.01421
0.0204801
-3.21818
0.020971
-2.58188
0.0215315
-2.0735
0.022044
-1.66757
0.0224045
-1.34373
0.0225337
-1.0858
0.0223985
-0.880999
0.0220103
-0.719307
0.0214034
-0.592897
0.020613
-0.495705
0.0196711
-0.423094
0.0185789
-0.371761
0.0173431
-0.338828
-0.323581
0.0158996
2.58852
-1212.48
2.15015
-1003.81
1.786
-831.09
1.48371
-688.119
1.23286
-569.778
1.02478
-471.835
0.852222
-390.781
0.70914
-323.717
0.590519
-268.24
0.492187
-222.365
0.410692
-184.449
0.343125
-153.136
0.287116
-127.303
0.240653
-106.027
0.202106
-88.5478
0.170112
-74.2405
0.143522
-62.5934
0.121462
-53.1895
0.103149
-45.6907
0.0879699
-39.8265
0.0752674
-35.3849
0.0649313
-32.2069
0.0557786
-30.1928
0.0481586
-29.2605
0.0412587
-29.3105
0.0356031
-23.5285
0.0310838
-18.8851
0.0276817
-15.1522
0.0251668
-12.151
0.0234122
-9.73973
0.0222629
-7.80423
0.0216176
-6.25234
0.0213841
-5.00924
0.0214845
-4.01431
0.0218187
-3.21852
0.0222775
-2.58234
0.0227368
-2.07395
0.0230703
-1.66791
0.0231801
-1.34384
0.0230091
-1.08563
0.0225573
-0.880547
0.0218599
-0.71861
0.0209721
-0.592009
0.0199341
-0.494666
0.018787
-0.421946
0.01753
-0.370503
0.0161751
-0.337473
-0.322057
0.014651
2.64403
-1211.94
2.19656
-1003.36
1.82482
-830.719
1.51625
-687.81
1.26021
-569.522
1.04785
-471.623
0.871746
-390.605
0.725746
-323.571
0.604715
-268.119
0.504394
-222.265
0.421256
-184.366
0.35233
-153.067
0.295195
-127.246
0.247795
-105.98
0.208467
-88.5084
0.175818
-74.2078
0.148673
-62.5662
0.12614
-53.167
0.10742
-45.672
0.0918836
-39.8109
0.0788612
-35.3718
0.0682234
-32.1961
0.0587577
-30.1835
0.0507953
-29.2526
0.0434784
-29.3032
0.0374665
-23.5225
0.0326647
-18.8803
0.0290768
-15.1486
0.0264544
-12.1484
0.0246561
-9.73794
0.0235071
-7.80308
0.0228878
-6.25172
0.0226856
-5.00904
0.0228022
-4.01443
0.0231134
-3.21883
0.0234878
-2.58271
0.0237868
-2.07425
0.0238842
-1.668
0.0236999
-1.34365
0.0232092
-1.08514
0.0224442
-0.879781
0.0214652
-0.717631
0.0203335
-0.590877
0.0191031
-0.493436
0.017803
-0.420645
0.016443
-0.369142
0.0150165
-0.336045
-0.3205
0.0134612
2.70285
-1211.39
2.24578
-1002.91
1.86608
-830.339
1.55094
-687.495
1.28949
-569.261
1.07267
-471.406
0.892911
-390.426
0.743897
-323.422
0.620388
-267.996
0.518024
-222.162
0.433199
-184.281
0.362878
-152.996
0.304585
-127.188
0.256221
-105.932
0.216082
-88.4683
0.182747
-74.1745
0.155013
-62.5385
0.131968
-53.1439
0.112793
-45.6528
0.0968452
-39.795
0.0834374
-35.3584
0.0724179
-32.1851
0.0625415
-30.1737
0.0541138
-29.2441
0.0462229
-29.2954
0.0397266
-23.516
0.0345407
-18.8752
0.0306901
-15.1448
0.0279037
-12.1456
0.0260199
-9.73605
0.0248382
-7.8019
0.0242154
-6.25109
0.0240127
-5.00884
0.0241067
-4.01452
0.0243471
-3.21907
0.0245813
-2.58295
0.0246629
-2.07434
0.0244776
-1.66782
0.0239734
-1.34315
0.0231637
-1.08433
0.0221072
-0.878724
0.0208834
-0.716406
0.0195551
-0.589548
0.0181802
-0.49206
0.0167797
-0.419244
0.0153596
-0.367721
0.0139046
-0.334587
-0.318953
0.0123596
2.76513
-1210.83
2.29795
-1002.44
1.9099
-829.951
1.5879
-687.173
1.32082
-568.994
1.09939
-471.184
0.915856
-390.242
0.763747
-323.27
0.637696
-267.87
0.533241
-222.058
0.446694
-184.194
0.374946
-152.925
0.315469
-127.128
0.266113
-105.882
0.225137
-88.4273
0.191085
-74.1404
0.162727
-62.5101
0.139127
-53.1203
0.119446
-45.6331
0.103025
-39.7785
0.0891576
-35.3446
0.077665
-32.1735
0.0672647
-30.1634
0.05823
-29.2351
0.0495849
-29.2867
0.0424569
-23.5088
0.03677
-18.8695
0.0325679
-15.1406
0.0295518
-12.1426
0.0275329
-9.73403
0.0262789
-7.80064
0.0256161
-6.25043
0.0253743
-5.0086
0.0254004
-4.01455
0.0255167
-3.21919
0.0255542
-2.58298
0.0253683
-2.07415
0.0248678
-1.66732
0.0240373
-1.34232
0.0229245
-1.08321
0.0216131
-0.877413
0.0201848
-0.714978
0.0187111
-0.588073
0.0172321
-0.49058
0.0157763
-0.417787
0.0143282
-0.366272
0.0128814
-0.333141
-0.317447
0.0113747
2.83102
-1210.26
2.3532
-1001.96
1.9564
-829.554
1.62723
-686.844
1.35431
-568.721
1.12812
-470.958
0.940696
-390.055
0.785411
-323.115
0.656761
-267.741
0.550174
-221.951
0.461871
-184.106
0.388672
-152.851
0.327986
-127.067
0.277615
-105.832
0.235775
-88.3854
0.200974
-74.1056
0.171954
-62.4811
0.147752
-53.0961
0.127508
-45.6129
0.110544
-39.7616
0.096133
-35.3302
0.0840628
-32.1614
0.0730096
-30.1524
0.0632051
-29.2253
0.0535988
-29.2771
0.0456701
-23.5009
0.0393479
-18.8632
0.0346914
-15.1359
0.031369
-12.1393
0.0291564
-9.73182
0.0277824
-7.79927
0.0270358
-6.24969
0.026709
-5.00828
0.0266149
-4.01446
0.026551
-3.21913
0.0263382
-2.58277
0.0258448
-2.07365
0.0250131
-1.66648
0.0238654
-1.34117
0.0224799
-1.08183
0.0209536
-0.875886
0.0193682
-0.713391
0.0177914
-0.586495
0.016255
-0.489042
0.014777
-0.416308
0.0133361
-0.36483
0.0119259
-0.331731
-0.315997
0.0104769
2.90066
-1209.67
2.41166
-1001.47
2.00571
-829.148
1.66908
-686.507
1.39011
-568.442
1.159
-470.727
0.967591
-389.863
0.809064
-322.956
0.677768
-267.61
0.569017
-221.843
0.478935
-184.016
0.404264
-152.777
0.342351
-127.006
0.290945
-105.78
0.248216
-88.3427
0.212636
-74.07
0.182914
-62.4514
0.158059
-53.0713
0.137191
-45.592
0.119606
-39.744
0.104555
-35.3151
0.0917887
-32.1486
0.0799354
-30.1406
0.0691757
-29.2145
0.0583728
-29.2663
0.049451
-23.492
0.0423408
-18.8561
0.0371126
-15.1307
0.0333957
-12.1356
0.0309213
-9.72934
0.0293713
-7.79772
0.028489
-6.24881
0.028024
-5.00782
0.0277529
-4.01419
0.0274521
-3.21883
0.0269418
-2.58226
0.0261146
-2.07283
0.0249513
-1.66532
0.0235098
-1.33973
0.021889
-1.08021
0.0201896
-0.874186
0.0184903
-0.711692
0.0168468
-0.584851
0.0152854
-0.48748
0.0138082
-0.41483
0.0123967
-0.363418
0.0110302
-0.330363
-0.314613
0.00964576
2.97424
-1209.07
2.47349
-1000.97
2.05797
-828.733
1.71359
-686.163
1.42836
-568.156
1.1922
-470.491
0.996711
-389.668
0.83488
-322.794
0.700903
-267.476
0.589965
-221.732
0.498088
-183.924
0.421933
-152.701
0.35878
-126.942
0.306321
-105.728
0.262681
-88.299
0.22629
-74.0336
0.195824
-62.4209
0.170264
-53.0457
0.1487
-45.5704
0.130408
-39.7257
0.11461
-35.2993
0.101013
-32.1351
0.0881927
-30.1278
0.0762677
-29.2026
0.0640015
-29.2541
0.0538683
-23.4819
0.0457973
-18.848
0.0398636
-15.1248
0.0356512
-12.1314
0.0328362
-9.72653
0.0310449
-7.79593
0.0299669
-6.24773
0.0293038
-5.00716
0.0287954
-4.01368
0.0282037
-3.21823
0.0273584
-2.58141
0.0261856
-2.07165
0.0247042
-1.66384
0.023002
-1.33802
0.0211864
-1.07839
0.0193573
-0.872357
0.0175825
-0.709916
0.0159043
-0.583173
0.0143409
-0.485916
0.0128821
-0.413371
0.0115064
-0.362041
0.0101907
-0.329047
-0.313291
0.00886955
3.05191
-1208.45
2.53885
-1000.46
2.11333
-828.307
1.76091
-685.81
1.46921
-567.865
1.22788
-470.25
1.02823
-389.468
0.863048
-322.629
0.726365
-267.339
0.613226
-221.619
0.519548
-183.83
0.441904
-152.623
0.377503
-126.878
0.323979
-105.674
0.279408
-88.2544
0.242175
-73.9964
0.210922
-62.3897
0.184596
-53.0194
0.162261
-45.5481
0.143164
-39.7065
0.126499
-35.2826
0.11192
-32.1205
0.0979447
-30.1138
0.084617
-29.1893
0.0705867
-29.24
0.0589963
-23.4703
0.0497698
-18.8388
0.0429794
-15.118
0.0381564
-12.1266
0.0349106
-9.72328
0.0328029
-7.79383
0.0314604
-6.24639
0.0305334
-5.00624
0.0297263
-4.01287
0.0287949
-3.2173
0.0275894
-2.58021
0.0260723
-2.07013
0.0242975
-1.66206
0.0223701
-1.3361
0.0204032
-1.07642
0.0184813
-0.870435
0.0166684
-0.708103
0.0149845
-0.581488
0.0134458
-0.484377
0.0120243
-0.411949
0.0107016
-0.360717
0.0094427
-0.327787
-0.312033
0.00818632
3.13388
-1207.82
2.6079
-999.932
2.17196
-827.871
1.81119
-685.449
1.51284
-567.566
1.26621
-470.003
1.06233
-389.264
0.893768
-322.461
0.754365
-267.2
0.639025
-221.503
0.54355
-183.735
0.46442
-152.544
0.39877
-126.812
0.344173
-105.62
0.298652
-88.2089
0.260548
-73.9582
0.228462
-62.3576
0.201307
-52.9922
0.178115
-45.5249
0.158106
-39.6865
0.140437
-35.265
0.124707
-32.1048
0.109366
-30.0985
0.094368
-29.1743
0.0782371
-29.2239
0.0649139
-23.457
0.0543134
-18.8282
0.046496
-15.1102
0.0409321
-12.121
0.0371526
-9.7195
0.0346429
-7.79132
0.032959
-6.24471
0.0316977
-5.00498
0.0305319
-4.01171
0.0292207
-3.21599
0.0276416
-2.57863
0.0257934
-2.06828
0.0237552
-1.66002
0.0216411
-1.33398
0.0195586
-1.07434
0.0175767
-0.868453
0.0157496
-0.706275
0.0140822
-0.579821
0.0125809
-0.482875
0.0112114
-0.41058
0.00995101
-0.359457
0.00875765
-0.326592
-0.310848
0.00757449
3.22031
-1207.17
2.6808
-999.392
2.23401
-827.424
1.86461
-685.08
1.55942
-567.261
1.30738
-469.751
1.09922
-389.056
0.92725
-322.289
0.78513
-267.058
0.667601
-221.386
0.570343
-183.638
0.489739
-152.463
0.422847
-126.745
0.367174
-105.564
0.320689
-88.1624
0.281682
-73.9192
0.248714
-62.3246
0.220662
-52.9642
0.196521
-45.5008
0.17548
-39.6655
0.156656
-35.2461
0.139584
-32.0877
0.122641
-30.0816
0.105676
-29.1573
0.0870681
-29.2053
0.0717047
-23.4416
0.0594868
-18.8159
0.0504518
-15.1012
0.0440005
-12.1145
0.0395714
-9.71507
0.0365634
-7.78832
0.0344536
-6.2426
0.0327846
-5.00331
0.0312039
-4.01013
0.0294819
-3.21427
0.0275274
-2.57667
0.0253691
-2.06612
0.0231017
-1.65775
0.0208379
-1.33172
0.0186717
-1.07217
0.016661
-0.866441
0.0148384
-0.704453
0.013206
-0.578188
0.0117477
-0.481417
0.0104371
-0.40927
0.00923487
-0.358255
0.00810612
-0.325466
-0.309737
0.00699298
3.31142
-1206.5
2.75775
-998.838
2.29965
-826.966
1.92132
-684.702
1.60912
-566.949
1.35157
-469.493
1.13909
-388.844
0.963724
-322.113
0.8189
-266.913
0.699206
-221.266
0.600191
-183.539
0.518136
-152.381
0.450015
-126.677
0.393269
-105.507
0.345806
-88.1149
0.305867
-73.8793
0.271967
-62.2907
0.242942
-52.9351
0.21775
-45.4756
0.195545
-39.6433
0.175398
-35.226
0.156773
-32.0691
0.137965
-30.0627
0.118701
-29.1381
0.0972002
-29.1838
0.0794559
-23.4239
0.0653509
-18.8018
0.0548863
-15.0907
0.0473838
-12.107
0.0421752
-9.70987
0.0385617
-7.7847
0.0359348
-6.23997
0.033784
-5.00116
0.0317382
-4.00808
0.0295847
-3.21211
0.0272628
-2.57435
0.0248204
-2.06368
0.0223593
-1.65529
0.0199789
-1.32934
0.0177598
-1.06995
0.0157432
-0.864425
0.0139444
-0.702653
0.012361
-0.576606
0.0109597
-0.480015
0.00971903
-0.408029
0.00858241
-0.357119
0.00752379
-0.324402
-0.308694
0.00648443
3.40743
-1205.81
2.83892
-998.27
2.36907
-826.496
1.98153
-684.314
1.66214
-566.63
1.39901
-469.23
1.18219
-388.627
1.00342
-321.935
0.855925
-266.765
0.734105
-221.144
0.633371
-183.438
0.549897
-152.298
0.480569
-126.608
0.422757
-105.45
0.374308
-88.0665
0.333407
-73.8384
0.298522
-62.2558
0.268443
-52.905
0.24209
-45.4492
0.218575
-39.6197
0.196918
-35.2043
0.176507
-32.0487
0.155543
-30.0418
0.133613
-29.1162
0.108759
-29.1589
0.0882586
-23.4034
0.071969
-18.7856
0.0598407
-15.0786
0.0511054
-12.0983
0.0449731
-9.70373
0.0406364
-7.78037
0.0373959
-6.23674
0.0346902
-4.99846
0.0321361
-4.00553
0.0295402
-3.20952
0.0268649
-2.57167
0.0241692
-2.06098
0.0215461
-1.65267
0.0190839
-1.32687
0.016832
-1.0677
0.0148278
-0.86242
0.0130539
-0.700879
0.0115203
-0.575071
0.0101619
-0.478657
0.00898365
-0.406852
0.00790137
-0.356037
0.00691045
-0.323418
-0.307738
0.00594852
3.50854
-1205.11
2.92453
-997.686
2.44246
-826.014
2.04541
-683.917
1.71869
-566.303
1.4499
-468.961
1.22872
-388.406
1.04659
-321.753
0.896467
-266.615
0.772574
-221.02
0.670172
-183.336
0.585322
-152.213
0.514817
-126.537
0.455952
-105.391
0.406511
-88.017
0.364617
-73.7965
0.328691
-62.2199
0.297473
-52.8738
0.269836
-45.4216
0.244851
-39.5947
0.22148
-35.181
0.199024
-32.0263
0.175584
-30.0183
0.150584
-29.0912
0.121875
-29.1302
0.0982061
-23.3797
0.079406
-18.7668
0.0653564
-15.0645
0.0551878
-12.0881
0.0479733
-9.69652
0.0427863
-7.77519
0.038832
-6.23278
0.0355016
-4.99513
0.0324039
-4.00243
0.029362
-3.20647
0.0263525
-2.56866
0.0234327
-2.05806
0.0206814
-1.64992
0.0181659
-1.32436
0.0159098
-1.06544
0.0139351
-0.860444
0.0122097
-0.699152
0.0107272
-0.573588
0.00942777
-0.477357
0.00830444
-0.405729
0.00727675
-0.355011
0.00635818
-0.322501
-0.306849
0.00546758
3.61499
-1204.38
3.01478
-997.086
2.52002
-825.52
2.11317
-683.51
1.77895
-565.969
1.50447
-468.687
1.27894
-388.18
1.09348
-321.567
0.940794
-266.462
0.814895
-220.894
0.710889
-183.232
0.624716
-152.127
0.553071
-126.466
0.493174
-105.331
0.442737
-87.9665
0.399823
-73.7535
0.362796
-62.1829
0.330344
-52.8414
0.301294
-45.3925
0.274662
-39.5681
0.249354
-35.1556
0.22457
-32.0015
0.198302
-29.9921
0.169791
-29.0627
0.136678
-29.0971
0.109393
-23.3524
0.0877278
-18.7451
0.0714763
-15.0483
0.0596553
-12.0763
0.051186
-9.68806
0.0450125
-7.76902
0.0402425
-6.22802
0.036222
-4.99111
0.0325522
-3.99876
0.0290658
-3.20299
0.0257415
-2.56533
0.0226256
-2.05495
0.0197751
-1.64706
0.0172301
-1.32181
0.0149948
-1.06321
0.0130622
-0.85851
0.0114003
-0.69749
0.00997623
-0.572162
0.00874722
-0.476129
0.00767873
-0.40466
0.00671981
-0.354054
0.00585536
-0.321637
-0.306013
0.00501999
3.72703
-1203.63
3.10988
-996.468
2.60194
-825.012
2.18502
-683.093
1.84316
-565.627
1.56292
-468.407
1.33307
-387.95
1.14435
-321.378
0.989178
-266.307
0.861355
-220.767
0.755822
-183.126
0.668389
-152.039
0.595652
-126.393
0.534747
-105.27
0.483313
-87.9151
0.43935
-73.7096
0.40116
-62.1447
0.367375
-52.8076
0.336768
-45.3619
0.3083
-39.5396
0.280809
-35.1282
0.253389
-31.9741
0.223911
-29.9626
0.19141
-29.0302
0.153298
-29.059
0.121914
-23.321
0.0969996
-18.7202
0.0782421
-15.0295
0.0645306
-12.0626
0.0546203
-9.67815
0.0473173
-7.76172
0.0416296
-6.22233
0.0368588
-4.98634
0.0325945
-3.99449
0.0286683
-3.19906
0.0250466
-2.56171
0.0217582
-2.05166
0.0188297
-1.64414
0.0162755
-1.31926
0.0140772
-1.06101
0.0122032
-0.856635
0.0106188
-0.695905
0.00926918
-0.570812
0.0081232
-0.474986
0.0071308
-0.403669
0.00624952
-0.353179
0.00546725
-0.320858
-0.305258
0.00470928
3.84493
-1202.87
3.21009
-995.834
2.68849
-824.49
2.2612
-682.666
1.91158
-565.277
1.62556
-468.121
1.39143
-387.716
1.19952
-321.187
1.04196
-266.15
0.912309
-220.637
0.805339
-183.019
0.716721
-151.951
0.642947
-126.319
0.581065
-105.208
0.528639
-87.8627
0.483597
-73.6645
0.44418
-62.1053
0.408956
-52.7724
0.376639
-45.3296
0.346131
-39.5091
0.316192
-35.0982
0.2858
-31.9438
0.2527
-29.9295
0.21569
-28.9932
0.171943
-29.0152
0.135942
-23.2851
0.107367
-18.6916
0.0857769
-15.0079
0.0699197
-12.0467
0.0583705
-9.6666
0.0497895
-7.75314
0.0430839
-6.21562
0.037508
-4.98076
0.0326319
-3.98962
0.0282709
-3.19469
0.0243695
-2.55781
0.0209221
-2.04821
0.0179328
-1.64115
0.0153739
-1.3167
0.0132209
-1.05886
0.0114093
-0.854823
0.00990747
-0.694405
0.00864022
-0.569545
0.00758367
-0.473936
0.00667029
-0.402757
0.00587841
-0.352394
0.00515806
-0.320141
-0.304566
0.00446803
3.96894
-1202.07
3.31563
-995.18
2.77985
-823.954
2.3419
-682.228
1.98438
-564.92
1.69256
-467.829
1.45419
-387.478
1.25918
-320.992
1.09934
-265.99
0.967975
-220.506
0.859666
-182.911
0.769947
-151.861
0.695197
-126.244
0.632373
-105.145
0.57896
-87.8092
0.532809
-73.6184
0.492097
-62.0646
0.455319
-52.7356
0.42113
-45.2954
0.388359
-39.4763
0.355688
-35.0655
0.321964
-31.9101
0.284794
-29.8923
0.242722
-28.9511
0.192659
-28.9652
0.151488
-23.2439
0.118814
-18.6589
0.0940429
-14.9832
0.0757669
-12.0285
0.0623699
-9.65321
0.0523585
-7.74313
0.0445371
-6.2078
0.0381061
-4.97433
0.0326042
-3.98411
0.0278156
-3.1899
0.0236471
-2.55364
0.0200564
-2.04462
0.0170107
-1.6381
0.0144537
-1.31414
0.0123385
-1.05674
0.0105917
-0.853079
0.00916581
-0.692977
0.0079859
-0.568374
0.00701999
-0.472969
0.00619378
-0.401927
0.00548886
-0.351691
0.00483447
-0.319442
-0.303892
0.00420307
4.09934
-1201.26
3.42671
-994.508
2.87621
-823.404
2.4273
-681.779
2.06174
-564.554
1.76411
-467.531
1.52155
-387.235
1.32355
-320.794
1.16153
-265.828
1.02857
-220.373
0.919029
-182.801
0.828298
-151.77
0.752637
-126.169
0.688909
-105.082
0.634514
-87.7548
0.587225
-73.5711
0.545144
-62.0225
0.506692
-52.6971
0.470455
-45.2591
0.435185
-39.4411
0.399476
-35.0298
0.362033
-31.8727
0.32032
-29.8506
0.272593
-28.9034
0.215492
-28.9081
0.168568
-23.197
0.13133
-18.6217
0.10301
-14.9549
0.0820269
-12.0075
0.0665636
-9.63775
0.0549669
-7.73153
0.0459345
-6.19877
0.038602
-4.967
0.0324618
-3.97797
0.0272513
-3.18469
0.0228297
-2.54922
0.0191101
-2.0409
0.0160161
-1.635
0.0134725
-1.31159
0.0113923
-1.05466
0.00971353
-0.851397
0.00834614
-0.691612
0.00725536
-0.567278
0.00635562
-0.472073
0.00561631
-0.401197
0.00499177
-0.351068
0.00440029
-0.318898
-0.303377
0.00384046
4.23644
-1200.41
3.54363
-993.815
2.97786
-822.838
2.51766
-681.319
2.14393
-564.181
1.84047
-467.228
1.5938
-386.989
1.3929
-320.593
1.22884
-265.664
1.0944
-220.238
0.983747
-182.69
0.8921
-151.679
0.815599
-126.092
0.751009
-105.017
0.69564
-87.6994
0.647181
-73.5226
0.603655
-61.9789
0.563403
-52.6569
0.524934
-45.2206
0.486913
-39.403
0.447842
-34.9908
0.40627
-31.8311
0.359509
-29.8038
0.305503
-28.8494
0.240609
-28.8432
0.187321
-23.1437
0.145035
-18.5794
0.112779
-14.9226
0.0887874
-11.9835
0.0710331
-9.62
0.0576964
-7.7182
0.047361
-6.18844
0.0390837
-4.95872
0.0322943
-3.97118
0.0266668
-3.17906
0.0220031
-2.54455
0.0181641
-2.03706
0.0150326
-1.63187
0.0125031
-1.30906
0.0104748
-1.05263
0.00885735
-0.84978
0.00757055
-0.690323
0.00653868
-0.566249
0.00570722
-0.471239
0.00502547
-0.400506
0.00443661
-0.35048
0.00394009
-0.318362
-0.302863
0.0034637
4.38054
-1199.54
3.66666
-993.101
3.08502
-822.256
2.61321
-680.847
2.23117
-563.798
1.92185
-466.919
1.67113
-386.738
1.46745
-320.389
1.30149
-265.498
1.16571
-220.102
1.05406
-182.579
0.961596
-151.586
0.884329
-126.015
0.81892
-104.952
0.762584
-87.6431
0.712921
-73.4729
0.667871
-61.9339
0.625687
-52.6147
0.584791
-45.1797
0.543757
-39.362
0.500983
-34.948
0.454848
-31.785
0.402509
-29.7514
0.341571
-28.7885
0.268097
-28.7697
0.207814
-23.0834
0.159974
-18.5316
0.123383
-14.886
0.0960725
-11.9562
0.075798
-9.59972
0.0605667
-7.70297
0.0488381
-6.17671
0.0395744
-4.94946
0.0321232
-3.96373
0.0260829
-3.17302
0.0211847
-2.53965
0.0172327
-2.0331
0.0140626
-1.6287
0.0115345
-1.30653
0.00952656
-1.05062
0.00794274
-0.84819
0.00668937
-0.689069
0.00571401
-0.565262
0.0049364
-0.470462
0.00431907
-0.399887
0.00382077
-0.349982
0.00336883
-0.317946
-0.302483
0.00295236
4.53199
-1198.65
3.79606
-992.365
3.19795
-821.658
2.71418
-680.363
2.32366
-563.408
2.00848
-466.603
1.75377
-386.483
1.54742
-320.183
1.37967
-265.33
1.24269
-219.965
1.13017
-182.466
1.03699
-151.493
0.959032
-125.937
0.892846
-104.885
0.835549
-87.5858
0.784647
-73.422
0.73799
-61.8872
0.693733
-52.5704
0.650209
-45.1362
0.605885
-39.3176
0.55905
-34.9011
0.507902
-31.7339
0.449434
-29.6929
0.380887
-28.7199
0.298023
-28.6868
0.230097
-23.0155
0.176188
-18.4777
0.134851
-14.8447
0.103903
-11.9253
0.0808774
-9.5767
0.0635984
-7.68569
0.0503887
-6.1635
0.0400961
-4.93916
0.0319697
-3.9556
0.0255157
-3.16657
0.0203907
-2.53453
0.016335
-2.02905
0.0131387
-1.6255
0.0106331
-1.30402
0.00867232
-1.04865
0.00714584
-0.84666
0.00595229
-0.68787
0.00502306
-0.56433
0.00428749
-0.469719
0.00372178
-0.399319
0.00323602
-0.34949
0.00289579
-0.317604
-0.302168
0.00258152
4.69112
-1197.72
3.93215
-991.606
3.31689
-821.043
2.82078
-679.867
2.42162
-563.009
2.10053
-466.282
1.84189
-386.224
1.63297
-319.974
1.46357
-265.161
1.32551
-219.827
1.21223
-182.353
1.11844
-151.399
1.03986
-125.858
0.972938
-104.818
0.914683
-87.5275
0.862504
-73.3698
0.814152
-61.8389
0.767679
-52.524
0.721318
-45.0898
0.67342
-39.2697
0.622156
-34.8499
0.565527
-31.6773
0.500361
-29.6278
0.42351
-28.6431
0.330433
-28.5938
0.254207
-22.9393
0.193706
-18.4172
0.147208
-14.7982
0.112303
-11.8903
0.0862939
-9.55069
0.0668154
-7.66621
0.052036
-6.14872
0.0406697
-4.9278
0.0318486
-3.94678
0.0249755
-3.15969
0.0196188
-2.52917