/*--------------------------------*- C++ -*----------------------------------*\
  =========                 |
  \\      /  F ield         | OpenFOAM: The Open Source CFD Toolbox
   \\    /   O peration     | Website:  https://openfoam.org
    \\  /    A nd           | Version:  10
     \\/     M anipulation  |
\*---------------------------------------------------------------------------*/
FoamFile
{
    format      ascii;
    class       volVectorField;
    location    "5";
    object      U;
}
// * * * * * * * * * * * * * * * * * * * * * * * * * * * * * * * * * * * * * //

dimensions      [0 1 -1 0 0 0 0];

internalField   nonuniform List<vector> 
38016
(
(51.3055 9.01762 4.12234e-25)
(51.3053 9.01956 1.10071e-25)
(51.306 9.01922 -1.32945e-25)
(51.3065 9.01929 0)
(51.307 9.01917 0)
(51.3078 9.01893 0)
(51.3087 9.01857 2.57251e-25)
(51.31 9.01802 3.51724e-21)
(51.3116 9.01726 -1.52436e-24)
(51.314 9.01619 1.83877e-24)
(51.3171 9.01476 9.79216e-21)
(51.3214 9.01272 -4.7898e-24)
(51.3274 9.00969 1.88463e-20)
(51.3357 9.00521 3.15322e-20)
(51.3483 8.99884 -2.26112e-20)
(51.3677 8.98975 0)
(51.3973 8.97779 0)
(51.4413 8.96318 0)
(51.5034 8.94678 -4.49492e-23)
(51.5856 8.9288 5.16086e-23)
(51.6903 8.91175 -3.20788e-20)
(51.8181 8.89443 4.81647e-20)
(51.9767 8.87238 -5.32552e-20)
(52.1697 8.84999 2.2782e-22)
(52.4402 8.82987 -5.78032e-20)
(52.7399 8.82139 5.11684e-25)
(53.0314 8.82401 -2.06701e-20)
(53.305 8.84214 1.94066e-22)
(53.5526 8.86762 2.20991e-25)
(53.7729 8.90093 0)
(53.9713 8.93951 1.60422e-25)
(54.1538 8.98445 1.95344e-22)
(54.3267 9.03675 -7.99301e-21)
(54.4952 9.09846 0)
(54.6638 9.17203 0)
(54.8359 9.25963 0)
(55.0142 9.3638 0)
(55.2011 9.48532 -1.2074e-21)
(55.3963 9.62538 -7.02367e-22)
(55.6016 9.7844 2.64008e-23)
(55.815 9.96105 2.88684e-23)
(56.0368 10.1544 1.86287e-21)
(56.2665 10.3632 -3.69963e-22)
(56.5063 10.5865 4.3457e-22)
(56.7589 10.8374 0)
(57.0342 11.0642 0)
(57.3557 11.4585 -2.41124e-21)
(57.7555 11.6719 2.19112e-21)
(51.3055 9.01759 -2.34114e-20)
(51.3053 9.01955 4.47627e-25)
(51.306 9.0192 9.92618e-21)
(51.3065 9.01927 0)
(51.3071 9.01914 0)
(51.3078 9.0189 -2.30808e-22)
(51.3087 9.01854 -1.61388e-26)
(51.31 9.01798 -3.51872e-21)
(51.3116 9.0172 8.755e-21)
(51.314 9.01611 1.62779e-24)
(51.317 9.01466 1.00747e-20)
(51.3213 9.01259 6.5148e-24)
(51.3274 9.00951 -1.88452e-20)
(51.3357 9.00495 -3.15261e-20)
(51.3485 8.99845 2.25987e-20)
(51.3682 8.98915 -5.53259e-20)
(51.3983 8.97686 -2.36864e-20)
(51.4426 8.96176 -2.62703e-23)
(51.5046 8.94475 -6.05513e-23)
(51.5858 8.92605 1.04653e-22)
(51.6882 8.90823 9.73389e-20)
(51.8104 8.89 -1.46088e-19)
(51.9678 8.8676 5.34983e-20)
(52.1545 8.8437 1.23134e-19)
(52.4158 8.8206 -6.03208e-20)
(52.7223 8.8048 -1.32742e-22)
(53.0215 8.80188 2.05254e-20)
(53.2997 8.8159 5.02963e-20)
(53.5503 8.84 -2.9995e-20)
(53.773 8.87462 0)
(53.9731 8.91703 0)
(54.157 8.96853 1.31905e-20)
(54.3311 9.03016 7.74623e-21)
(54.5009 9.10437 -9.51834e-21)
(54.6711 9.19389 0)
(54.8452 9.30117 6.87044e-21)
(55.0261 9.429 0)
(55.2163 9.57798 1.20458e-21)
(55.4161 9.74918 -1.45104e-21)
(55.6269 9.94231 1.79572e-21)
(55.8473 10.155 -2.16548e-21)
(56.0779 10.3854 -6.19003e-22)
(56.3182 10.6309 -4.04644e-22)
(56.5708 10.8891 4.79029e-22)
(56.8373 11.1783 0)
(57.1371 11.4193 0)
(57.4649 11.8658 -1.88296e-21)
(57.9252 12.0835 2.27254e-21)
(51.3055 9.01755 -2.61729e-22)
(51.3053 9.01953 0)
(51.306 9.01917 -2.00375e-20)
(51.3065 9.01924 0)
(51.307 9.01912 0)
(51.3078 9.01886 2.30888e-22)
(51.3087 9.01849 1.29586e-25)
(51.3099 9.01793 -2.42612e-25)
(51.3116 9.01713 -8.75797e-21)
(51.3139 9.01601 1.64968e-24)
(51.317 9.01453 -1.98879e-20)
(51.3213 9.01241 -4.18824e-20)
(51.3273 9.00924 7.77915e-20)
(51.3357 9.00456 6.28207e-23)
(51.3486 8.99784 -4.21091e-23)
(51.3684 8.9882 5.53238e-20)
(51.3987 8.97538 2.37131e-20)
(51.4433 8.95953 3.80937e-23)
(51.5056 8.94149 -3.07597e-23)
(51.5871 8.92143 0)
(51.6897 8.90195 -1.97971e-19)
(51.8112 8.88147 9.79435e-20)
(51.9702 8.85605 -1.11245e-19)
(52.157 8.8279 -2.48364e-19)
(52.4162 8.79944 -2.3105e-21)
(52.7265 8.77825 0)
(53.0288 8.77156 8.53087e-20)
(53.3096 8.78402 -4.99121e-20)
(53.5622 8.80876 2.97541e-20)
(53.7861 8.84614 0)
(53.9867 8.89309 6.79461e-22)
(54.1707 8.9509 1.2084e-20)
(54.3448 9.02067 2.00234e-21)
(54.5147 9.10501 7.10875e-21)
(54.6854 9.20677 -1.02489e-20)
(54.8608 9.32843 -6.86543e-21)
(55.0441 9.47268 0)
(55.2382 9.6399 -5.13169e-21)
(55.4435 9.83049 1.50335e-21)
(55.6621 10.0433 -1.85876e-21)
(55.8926 10.2749 4.34409e-21)
(56.1358 10.5223 -2.67204e-21)
(56.3916 10.7814 3.90782e-21)
(56.6623 11.0485 -9.12614e-22)
(56.9473 11.3461 -1.20821e-23)
(57.2778 11.5699 -6.13107e-21)
(57.6119 12.018 4.82213e-23)
(58.1091 12.2099 -4.85916e-21)
(51.3055 9.01751 7.15868e-20)
(51.3053 9.01952 0)
(51.306 9.01915 1.01098e-20)
(51.3065 9.01922 1.32885e-24)
(51.3071 9.01909 6.17394e-21)
(51.3078 9.01883 1.13431e-25)
(51.3087 9.01846 4.2514e-21)
(51.3099 9.01787 0)
(51.3116 9.01706 1.78049e-20)
(51.3139 9.01592 0)
(51.317 9.01441 -4.08931e-20)
(51.3212 9.01223 4.19061e-20)
(51.3272 9.00899 -7.782e-20)
(51.3356 9.00419 -2.81206e-23)
(51.3483 8.99727 -9.59015e-20)
(51.3681 8.98731 -1.15623e-19)
(51.3984 8.97401 2.06553e-23)
(51.443 8.95745 -2.43139e-23)
(51.5051 8.93848 0)
(51.5864 8.91722 -1.48974e-19)
(51.6882 8.89633 2.67679e-19)
(51.8073 8.87398 -2.01962e-19)
(51.9648 8.84627 3.37682e-19)
(52.145 8.81456 1.25952e-19)
(52.4046 8.78145 1.19579e-19)
(52.7121 8.75501 5.51347e-22)
(53.0125 8.74455 8.56281e-22)
(53.2917 8.75495 -1.04367e-19)
(53.544 8.77961 6.27779e-20)
(53.7686 8.81872 0)
(53.9709 8.86885 0)
(54.1574 8.93123 5.50553e-22)
(54.3349 9.00686 -1.65523e-20)
(54.5091 9.0984 0)
(54.685 9.2086 1.17194e-20)
(54.8669 9.33971 0)
(55.0581 9.49407 0)
(55.2619 9.67149 5.1253e-21)
(55.4791 9.87143 -3.28857e-21)
(55.7117 10.0916 -3.74169e-21)
(55.9589 10.3273 4.63425e-21)
(56.221 10.574 2.82596e-21)
(56.4977 10.8263 6.60625e-21)
(56.7902 11.0797 -7.84329e-21)
(57.0964 11.3579 0)
(57.4531 11.5424 -8.48199e-23)
(57.8014 11.9525 -1.20076e-20)
(58.3175 12.091 1.17456e-20)
(51.3055 9.01746 -4.79176e-20)
(51.3053 9.0195 -1.878e-24)
(51.306 9.01912 2.09362e-20)
(51.3065 9.0192 -1.00262e-20)
(51.307 9.01906 -6.17612e-21)
(51.3078 9.0188 -6.88174e-22)
(51.3087 9.01841 4.19245e-21)
(51.3099 9.01782 0)
(51.3116 9.01699 -1.78117e-20)
(51.3139 9.01582 4.79613e-25)
(51.3169 9.01427 4.0894e-20)
(51.3212 9.01204 8.51778e-24)
(51.3272 9.00873 0)
(51.3355 9.00379 -3.65016e-23)
(51.3483 8.99667 9.59815e-20)
(51.3681 8.98638 1.15667e-19)
(51.3984 8.97258 5.10173e-20)
(51.4432 8.95531 1.21915e-21)
(51.5056 8.9354 0)
(51.5872 8.91292 3.00361e-19)
(51.6894 8.89061 -1.34982e-19)
(51.8087 8.8663 2.02439e-19)
(51.9682 8.83615 -4.58413e-19)
(52.1505 8.80083 -4.93392e-22)
(52.4101 8.76296 4.92764e-22)
(52.7194 8.73116 5.61511e-22)
(53.0217 8.7168 -1.76684e-19)
(53.302 8.72508 1.05231e-19)
(53.5547 8.74946 1.11902e-21)
(53.7791 8.79004 0)
(53.9808 8.84296 -1.41371e-21)
(54.1666 8.90932 -2.57337e-20)
(54.3436 8.98997 1.65544e-20)
(54.5177 9.08744 0)
(54.6945 9.20426 0)
(54.8787 9.34228 -1.48509e-20)
(55.074 9.50322 4.373e-21)
(55.2841 9.68606 -5.43363e-21)
(55.51 9.88902 -5.08676e-23)
(55.7539 10.1084 8.10787e-21)
(56.0147 10.338 -4.87921e-21)
(56.292 10.5719 -5.77095e-21)
(56.5844 10.8036 -1.38953e-20)
(56.8912 11.0285 1.86003e-20)
(57.2097 11.2697 1.93055e-20)
(57.5763 11.4036 -2.18253e-20)
(57.9276 11.7544 -1.53476e-21)
(58.4384 11.8167 -1.59604e-21)
(51.3055 9.01742 0)
(51.3053 9.01949 0)
(51.306 9.0191 -2.09402e-20)
(51.3065 9.01917 1.00284e-20)
(51.307 9.01903 0)
(51.3078 9.01876 6.8842e-22)
(51.3087 9.01837 -8.44905e-21)
(51.3099 9.01776 6.31799e-25)
(51.3116 9.01691 0)
(51.3139 9.01572 0)
(51.3169 9.01413 8.40393e-20)
(51.3212 9.01185 0)
(51.3271 9.00844 0)
(51.3354 9.00338 1.37475e-19)
(51.3481 8.99604 1.99186e-19)
(51.3678 8.9854 -1.2058e-19)
(51.3982 8.97108 -5.10141e-20)
(51.443 8.95308 -1.92385e-21)
(51.5054 8.93218 -6.28124e-23)
(51.587 8.90844 -1.50987e-19)
(51.6889 8.88465 2.78517e-19)
(51.8073 8.85821 0)
(51.9669 8.82552 2.31354e-19)
(52.1473 8.78632 0)
(52.4058 8.74333 0)
(52.714 8.70573 -5.71307e-22)
(53.0162 8.68714 2.68973e-19)
(53.2962 8.69305 -1.08034e-19)
(53.5493 8.71696 -6.39255e-20)
(53.7745 8.75885 0)
(53.9773 8.8144 -4.59288e-20)
(54.1648 8.8845 -1.79734e-21)
(54.3442 8.96979 -3.65582e-20)
(54.5216 9.07255 -1.566e-20)
(54.7031 9.19494 -6.2125e-21)
(54.8936 9.33828 3.38731e-20)
(55.097 9.5034 -4.4989e-21)
(55.3175 9.68819 5.58802e-21)
(55.5558 9.88935 6.83612e-21)
(55.814 10.1016 -1.21525e-20)
(56.0902 10.3174 1.48598e-20)
(56.3824 10.5296 1.1943e-20)
(56.6876 10.7313 -1.82924e-20)
(57.003 10.9185 -2.10887e-21)
(57.3266 11.1135 2.03807e-20)
(57.6905 11.1911 -2.15624e-20)
(58.0344 11.4767 1.52782e-21)
(58.5213 11.4579 1.5909e-21)
(51.3055 9.01736 -7.1324e-24)
(51.3053 9.01946 0)
(51.306 9.01907 2.16536e-20)
(51.3065 9.01914 -2.79882e-24)
(51.307 9.019 4.51714e-25)
(51.3078 9.01872 -1.14164e-25)
(51.3086 9.01832 8.32618e-21)
(51.3099 9.0177 -2.91773e-20)
(51.3116 9.01683 0)
(51.3138 9.01561 8.05126e-20)
(51.3169 9.01398 -8.40701e-20)
(51.3211 9.01164 -1.4073e-23)
(51.327 9.00814 1.69272e-23)
(51.3353 9.00293 -1.37526e-19)
(51.3479 8.99537 -1.9921e-19)
(51.3677 8.98436 1.20515e-19)
(51.398 8.9695 6.00589e-23)
(51.4428 8.95071 6.77956e-22)
(51.5053 8.92878 6.33283e-23)
(51.5871 8.9037 0)
(51.6888 8.87834 -2.79709e-19)
(51.807 8.84967 -4.21621e-19)
(51.9668 8.81419 0)
(52.1467 8.7709 0)
(52.4049 8.72234 9.77096e-22)
(52.7131 8.67855 -1.21671e-21)
(53.0156 8.6553 -1.79865e-19)
(53.2962 8.65861 1.08055e-19)
(53.5498 8.68188 1.00663e-21)
(53.7756 8.72498 -2.47081e-21)
(53.9794 8.78304 5.03571e-20)
(54.1683 8.85672 -5.82435e-20)
(54.3496 8.9463 3.22544e-20)
(54.53 9.05374 4.20353e-20)
(54.7158 9.18065 0)
(54.9123 9.32766 -1.52107e-20)
(55.1236 9.49441 -4.62827e-21)
(55.3539 9.67755 1.73097e-20)
(55.6039 9.87208 -1.38922e-20)
(55.8743 10.0712 8.65091e-21)
(56.1623 10.2663 0)
(56.4638 10.4495 3.08009e-21)
(56.7734 10.6147 -1.98348e-22)
(57.0879 10.7589 -1.84013e-20)
(57.4037 10.9037 4.55719e-20)
(57.7518 10.9251 1.43384e-22)
(58.072 11.1471 -2.64964e-20)
(58.519 11.0544 3.55799e-21)
(51.3055 9.01732 1.00089e-19)
(51.3053 9.01945 -2.72958e-20)
(51.306 9.01905 2.23523e-20)
(51.3065 9.01912 2.10949e-20)
(51.307 9.01897 6.80331e-25)
(51.3078 9.01869 5.70931e-25)
(51.3086 9.01827 -1.65931e-20)
(51.3099 9.01764 2.91895e-20)
(51.3116 9.01675 -8.74996e-26)
(51.3138 9.0155 -8.05443e-20)
(51.3168 9.01383 0)
(51.3211 9.01142 1.80013e-19)
(51.3269 9.00783 2.5e-23)
(51.3352 9.00246 -3.00131e-23)
(51.3477 8.99465 -5.04994e-23)
(51.3675 8.98326 -2.51017e-19)
(51.3978 8.96781 -2.36684e-23)
(51.4426 8.9482 2.78605e-23)
(51.5051 8.92517 0)
(51.5869 8.89867 0)
(51.6885 8.87165 0)
(51.8063 8.84057 4.23327e-19)
(51.9663 8.80219 7.03556e-23)
(52.1455 8.7545 -2.75165e-19)
(52.4032 8.70004 0)
(52.7111 8.64957 0)
(53.0141 8.62132 0)
(53.295 8.62173 1.11602e-19)
(53.5493 8.64415 -1.34364e-19)
(53.776 8.68831 8.36414e-20)
(53.981 8.74871 4.29599e-20)
(54.1715 8.82567 6.55163e-20)
(54.3554 8.91906 3.13019e-20)
(54.5393 9.03034 -2.12313e-20)
(54.7301 9.16044 0)
(54.9332 9.30907 0)
(55.153 9.47449 -9.95664e-21)
(55.3932 9.65193 -1.1455e-20)
(55.6539 9.83472 7.05579e-21)
(55.9343 10.0148 -8.63381e-21)
(56.2297 10.183 2.16843e-20)
(56.5338 10.3319 -5.29647e-20)
(56.8396 10.4567 3.58994e-20)
(57.1428 10.5559 0)
(57.4405 10.6511 -4.5078e-20)
(57.7606 10.6207 5.10229e-20)
(58.0456 10.7867 3.59321e-21)
(58.4414 10.6344 -3.56735e-21)
(51.3055 9.01726 -2.01315e-19)
(51.3053 9.01943 2.7316e-20)
(51.306 9.01902 -4.40276e-20)
(51.3065 9.01909 -2.11036e-20)
(51.307 9.01894 0)
(51.3078 9.01865 -4.15613e-25)
(51.3086 9.01822 -8.13194e-21)
(51.3099 9.01757 0)
(51.3115 9.01666 7.40702e-20)
(51.3138 9.01538 0)
(51.3168 9.01366 -3.73864e-24)
(51.321 9.01118 -1.80076e-19)
(51.3268 9.00749 0)
(51.335 9.00197 0)
(51.3476 8.9939 -5.14666e-23)
(51.3672 8.98209 2.51284e-19)
(51.3975 8.96602 -6.26167e-23)
(51.4424 8.94553 1.22449e-21)
(51.5049 8.92134 0)
(51.5868 8.89333 0)
(51.6882 8.86455 0)
(51.806 8.83097 -8.76741e-22)
(51.9656 8.78942 9.36384e-22)
(52.1444 8.73715 2.74208e-19)
(52.4013 8.67633 0)
(52.7093 8.61878 0)
(53.0124 8.58511 1.87264e-19)
(53.2941 8.58236 -2.23197e-19)
(53.5491 8.60372 -2.12244e-21)
(53.7769 8.64876 -8.11794e-20)
(53.9833 8.71129 -4.90332e-20)
(54.1758 8.79118 6.02746e-20)
(54.3625 8.8878 -3.57988e-20)
(54.5504 9.00196 0)
(54.7465 9.13371 0)
(54.9566 9.28167 4.07454e-20)
(55.1848 9.44257 -1.05131e-20)
(55.4341 9.61016 -1.19038e-20)
(55.7034 9.77632 1.51391e-20)
(55.9899 9.9323 9.34113e-21)
(56.2868 10.0691 -2.26671e-20)
(56.5855 10.1807 2.75821e-20)
(56.8788 10.2644 0)
(57.1614 10.3204 0)
(57.432 10.3702 -8.95825e-21)
(57.7149 10.2964 0)
(57.9583 10.4171 -7.38529e-21)
(58.2971 10.2219 0)
(51.3055 9.0172 1.01204e-19)
(51.3054 9.01941 0)
(51.306 9.01899 -4.54434e-20)
(51.3065 9.01906 -2.17858e-20)
(51.307 9.01891 -1.50464e-20)
(51.3078 9.01861 8.15083e-25)
(51.3086 9.01817 3.26698e-20)
(51.3099 9.0175 5.45401e-24)
(51.3115 9.01657 -7.40983e-20)
(51.3138 9.01525 -4.03337e-24)
(51.3167 9.01349 -1.772e-19)
(51.3209 9.01094 0)
(51.3267 9.00714 0)
(51.3349 9.00144 0)
(51.3474 8.9931 2.14025e-19)
(51.367 8.98085 -2.61068e-19)
(51.3972 8.96412 1.13855e-19)
(51.4421 8.94269 -1.16906e-21)
(51.5047 8.91726 -6.50588e-23)
(51.5865 8.88765 0)
(51.6877 8.85698 6.83672e-22)
(51.8053 8.82072 -7.51543e-22)
(51.9648 8.77588 0)
(52.1428 8.71869 -5.6727e-19)
(52.3992 8.65113 1.02822e-21)
(52.7068 8.58597 -1.28033e-21)
(53.0104 8.5465 -1.88732e-19)
(53.2927 8.54024 -1.72704e-21)
(53.5486 8.56031 1.34414e-19)
(53.7777 8.60603 8.64284e-20)
(53.9857 8.67042 3.08898e-21)
(54.1805 8.75284 -6.41285e-20)
(54.3702 8.85202 0)
(54.5624 8.96794 0)
(54.7642 9.09964 -2.74629e-20)
(54.9813 9.24448 -3.27189e-20)
(55.2173 9.39759 2.00064e-20)
(55.4741 9.55136 1.2687e-20)
(55.7489 9.69673 5.68646e-22)
(56.0367 9.82482 -1.90431e-20)
(56.3284 9.92788 2.36899e-20)
(56.6143 10.002 3.34846e-22)
(56.8869 10.0469 -2.61072e-20)
(57.1424 10.0641 -5.41811e-21)
(57.378 10.0756 6.07675e-21)
(57.6207 9.96906 -5.67724e-20)
(57.8182 10.0551 1.28236e-19)
(58.101 9.83396 -6.52693e-20)
(51.3055 9.01714 -8.69634e-24)
(51.3053 9.01939 -5.66406e-20)
(51.306 9.01896 9.16081e-20)
(51.3065 9.01903 2.17979e-20)
(51.307 9.01887 1.5054e-20)
(51.3077 9.01856 6.48802e-25)
(51.3086 9.01812 -1.6272e-20)
(51.3099 9.01743 -2.55753e-24)
(51.3115 9.01647 3.37587e-24)
(51.3137 9.01512 -4.0722e-24)
(51.3167 9.0133 -2.22241e-21)
(51.3209 9.01068 -2.89059e-25)
(51.3266 9.00677 0)
(51.3348 9.00089 2.97842e-19)
(51.3472 8.99225 -2.14055e-19)
(51.3667 8.97953 2.61109e-19)
(51.3969 8.9621 -1.13831e-19)
(51.4418 8.93968 -2.87086e-21)
(51.5043 8.91292 2.07727e-22)
(51.5862 8.88162 1.90148e-22)
(51.6872 8.84895 2.11172e-22)
(51.8049 8.80988 4.45837e-19)
(51.9635 8.76147 9.68998e-22)
(52.1413 8.69912 5.6739e-19)
(52.3967 8.62433 0)
(52.7043 8.5511 -1.23925e-21)
(53.0081 8.50535 1.54347e-21)
(53.2914 8.49528 -1.2033e-19)
(53.5482 8.51381 2.21731e-21)
(53.7789 8.55996 1.29107e-21)
(53.9888 8.62593 1.0298e-19)
(54.1861 8.71042 -6.61746e-20)
(54.3793 8.81138 4.74781e-21)
(54.5761 8.92784 -5.16517e-20)
(54.7836 9.05766 3.44637e-20)
(55.0073 9.19686 0)
(55.2499 9.339 0)
(55.5119 9.47543 1.35357e-20)
(55.7882 9.59678 -1.58992e-20)
(56.0715 9.69487 -2.23644e-22)
(56.3512 9.76406 -6.1735e-20)
(56.6177 9.80291 3.01263e-20)
(56.8633 9.81338 -9.0292e-21)
(57.0864 9.79825 5.42536e-21)
(57.2843 9.78005 5.23027e-20)
(57.4849 9.6507 -5.92741e-20)
(57.6382 9.71299 0)
(57.8707 9.48019 -6.86902e-20)
(51.3055 9.01708 -2.08747e-19)
(51.3054 9.01937 -5.80119e-20)
(51.306 9.01893 -4.61651e-20)
(51.3065 9.019 4.49697e-20)
(51.307 9.01883 -2.5214e-24)
(51.3077 9.01852 -5.02547e-21)
(51.3086 9.01806 0)
(51.3099 9.01735 -5.9746e-20)
(51.3115 9.01637 -7.57229e-20)
(51.3137 9.01498 -8.48977e-20)
(51.3167 9.01311 3.61339e-19)
(51.3208 9.01041 2.343e-24)
(51.3265 9.00637 0)
(51.3347 9.00029 -6.00487e-19)
(51.347 8.99134 -4.42998e-19)
(51.3665 8.97812 -2.71048e-19)
(51.3966 8.95995 6.64439e-23)
(51.4413 8.93646 2.87182e-21)
(51.5039 8.9083 0)
(51.5857 8.87518 4.35391e-22)
(51.6865 8.84038 -4.90416e-22)
(51.804 8.79829 -4.467e-19)
(51.9622 8.74616 -9.85547e-22)
(52.1393 8.67828 1.11425e-21)
(52.3939 8.59584 -2.82537e-19)
(52.7012 8.51396 -3.3128e-19)
(53.0054 8.4615 1.94265e-19)
(53.2896 8.44723 4.70819e-19)
(53.5476 8.46391 4.35766e-21)
(53.7799 8.51025 -8.52612e-20)
(53.9919 8.57745 -1.0956e-19)
(54.192 8.66346 -1.05718e-21)
(54.3889 8.76534 7.70567e-20)
(54.5904 8.881 4.60112e-20)
(54.8035 9.00702 -1.40943e-20)
(55.0331 9.13807 7.02157e-20)
(55.2807 9.26631 2.17417e-20)
(55.5446 9.3826 -2.57527e-20)
(55.818 9.47797 1.62511e-20)
(56.0912 9.54577 3.06169e-20)
(56.3531 9.58296 -9.0042e-20)
(56.5945 9.59072 6.28924e-20)
(56.81 9.57259 -7.76931e-20)
(56.9973 9.5325 1.91618e-19)
(57.1587 9.49308 -1.08778e-19)
(57.3175 9.34989 0)
(57.4336 9.39837 -1.46002e-19)
(57.621 9.16322 1.48679e-19)
(51.3055 9.01701 2.08826e-19)
(51.3053 9.01935 1.72773e-19)
(51.306 9.0189 -4.75756e-20)
(51.3065 9.01897 -9.06411e-20)
(51.307 9.0188 0)
(51.3077 9.01847 5.02744e-21)
(51.3086 9.018 0)
(51.3099 9.01727 5.97693e-20)
(51.3115 9.01626 7.57455e-20)
(51.3137 9.01483 8.49388e-20)
(51.3166 9.01291 -3.65932e-19)
(51.3208 9.01012 -1.92489e-19)
(51.3264 9.00595 3.61652e-19)
(51.3345 8.99967 3.02605e-19)
(51.3467 8.99038 4.43104e-19)
(51.3662 8.97663 2.71153e-19)
(51.3962 8.95766 0)
(51.4409 8.93304 0)
(51.5034 8.90337 -2.1391e-22)
(51.5852 8.86832 -3.42597e-19)
(51.6857 8.83125 6.2442e-19)
(51.8034 8.78602 0)
(51.9605 8.72985 0)
(52.1373 8.65618 0)
(52.3907 8.56553 5.65342e-19)
(52.6979 8.47451 6.75445e-19)
(53.0024 8.41479 -1.97432e-19)
(53.2878 8.39597 -2.37141e-19)
(53.5471 8.41051 0)
(53.7814 8.45672 0)
(53.9958 8.52477 -6.49036e-21)
(54.1989 8.61171 7.1516e-20)
(54.3996 8.71356 -7.70446e-20)
(54.6059 8.82701 1.17522e-20)
(54.8242 8.94728 -4.40347e-20)
(55.0585 9.06779 -3.52951e-20)
(55.3087 9.17968 6.77155e-22)
(55.571 9.27393 -2.70715e-20)
(55.8365 9.34269 0)
(56.0942 9.38155 8.60892e-20)
(56.3337 9.39021 -6.66431e-20)
(56.5466 9.37206 0)
(56.7298 9.33168 0)
(56.8821 9.27388 -5.93293e-21)
(57.0079 9.22047 0)
(57.1305 9.07136 -8.25267e-21)
(57.2132 9.11169 8.78434e-21)
(57.3625 8.88033 -4.6272e-21)
(51.3055 9.01695 -2.13016e-19)
(51.3054 9.01933 6.81116e-22)
(51.306 9.01887 -4.89553e-20)
(51.3065 9.01893 9.20433e-20)
(51.307 9.01876 -1.68967e-20)
(51.3077 9.01843 -1.45763e-24)
(51.3086 9.01794 0)
(51.3099 9.01719 -5.95319e-24)
(51.3115 9.01615 7.18425e-24)
(51.3137 9.01468 0)
(51.3166 9.0127 -2.22317e-21)
(51.3207 9.00981 1.92565e-19)
(51.3263 9.00551 -3.61792e-19)
(51.3344 8.999 6.2349e-19)
(51.3465 8.98936 0)
(51.3658 8.97504 0)
(51.3957 8.95521 0)
(51.4403 8.92938 0)
(51.5027 8.8981 2.17031e-22)
(51.5844 8.86099 3.42685e-19)
(51.6847 8.82149 -1.25877e-18)
(51.8023 8.77288 -9.54234e-22)
(51.9586 8.71251 1.01908e-21)
(52.1347 8.63264 -6.06087e-19)
(52.3871 8.53334 -2.86077e-19)
(52.6939 8.43251 -6.8296e-19)
(52.9988 8.36507 3.08903e-21)
(53.2854 8.34125 -3.84868e-21)
(53.5463 8.3533 1.46984e-19)
(53.7827 8.39905 0)
(53.9997 8.4675 0)
(54.2061 8.55469 -7.35863e-20)
(54.4108 8.65549 1.00063e-20)
(54.6216 8.76526 -1.20143e-20)
(54.8443 8.8779 1.04538e-19)
(55.0816 8.98574 -3.7245e-20)
(55.3318 9.07948 -2.2471e-20)
(55.5886 9.15082 2.86703e-20)
(55.8417 9.19375 -8.95251e-20)
(56.0798 9.20639 -4.51373e-20)
(56.2935 9.191 1.28807e-20)
(56.4768 9.1524 1.54612e-19)
(56.6271 9.09585 -8.33985e-20)
(56.7472 9.02651 1.139e-19)
(56.8397 8.96493 -1.18207e-19)
(56.9314 8.81534 -1.18691e-19)
(56.9848 8.85104 1.49e-19)
(57.1022 8.6283 0)
(51.3055 9.01687 4.28231e-19)
(51.3054 9.0193 -1.18189e-19)
(51.306 9.01883 9.65579e-20)
(51.3065 9.0189 6.76412e-22)
(51.307 9.01872 1.69035e-20)
(51.3077 9.01837 5.26175e-26)
(51.3086 9.01787 1.76202e-24)
(51.3098 9.0171 -6.04452e-20)
(51.3114 9.01603 -1.40123e-23)
(51.3136 9.01452 1.69024e-23)
(51.3165 9.01247 1.86459e-19)
(51.3206 9.00949 -1.15973e-23)
(51.3262 9.00504 3.7184e-19)
(51.3342 8.9983 9.07437e-21)
(51.3463 8.98827 -4.65646e-19)
(51.3655 8.97334 -5.92715e-23)
(51.3952 8.95261 7.03016e-23)
(51.4397 8.92547 0)
(51.5019 8.89248 2.20153e-22)
(51.5835 8.85317 2.032e-22)
(51.6835 8.81109 6.33823e-19)
(51.8013 8.75893 0)
(51.9563 8.69403 -5.61135e-19)
(52.1321 8.60765 1.21983e-18)
(52.383 8.4991 2.33657e-21)
(52.6897 8.38793 3.44054e-19)
(52.9948 8.31216 -2.05969e-19)
(53.283 8.28294 3.76781e-21)
(53.5456 8.29213 -7.20756e-21)
(53.7845 8.33705 5.67598e-21)
(54.0043 8.40543 6.70184e-21)
(54.2142 8.49213 1.23854e-19)
(54.4228 8.5908 -8.14032e-20)
(54.6378 8.69545 -1.22871e-20)
(54.8638 8.7987 -4.48657e-20)
(55.1023 8.89217 7.55071e-20)
(55.3492 8.96669 2.38964e-20)
(55.5965 9.01534 0)
(55.8332 9.03434 -6.43657e-22)
(56.0487 9.02437 2.26919e-20)
(56.2348 8.98974 0)
(56.3882 8.93595 -1.74766e-20)
(56.5076 8.86868 1.10354e-20)
(56.5975 8.79261 -1.28523e-20)
(56.6614 8.72747 0)
(56.7257 8.5804 -8.64035e-21)
(56.7539 8.61436 0)
(56.8467 8.40345 0)
(51.3055 9.0168 -2.15235e-19)
(51.3054 9.01928 1.19654e-19)
(51.306 9.0188 -9.93491e-20)
(51.3065 9.01886 4.84238e-20)
(51.307 9.01868 0)
(51.3077 9.01833 0)
(51.3086 9.01781 -3.08317e-20)
(51.3098 9.01702 6.04696e-20)
(51.3114 9.01591 0)
(51.3136 9.01435 1.5488e-23)
(51.3165 9.01223 -1.86705e-23)
(51.3206 9.00915 3.99919e-19)
(51.3261 9.00454 -3.71987e-19)
(51.334 8.99755 -6.32985e-19)
(51.346 8.98712 -7.44983e-21)
(51.3651 8.97153 0)
(51.3946 8.94982 0)
(51.4389 8.9213 5.91817e-23)
(51.5009 8.88647 -6.89217e-23)
(51.5823 8.84481 -7.17502e-19)
(51.682 8.79995 5.21235e-22)
(51.7998 8.744 0)
(51.9538 8.67437 1.13034e-18)
(52.1288 8.58105 -6.13724e-19)
(52.3785 8.46276 0)
(52.6847 8.34054 0)
(52.9903 8.25592 2.0918e-19)
(53.28 8.22079 -2.54527e-19)
(53.5445 8.22672 -1.49058e-19)
(53.7861 8.27037 0)
(54.009 8.33813 0)
(54.2224 8.42358 1.11869e-21)
(54.4348 8.51902 1.01776e-19)
(54.6533 8.61713 -2.54048e-20)
(54.8814 8.70948 6.31754e-20)
(55.1186 8.7874 1.08585e-21)
(55.3591 8.84248 -7.27482e-20)
(55.5935 8.86965 2.96771e-20)
(55.8109 8.8675 -5.82897e-20)
(56.0016 8.83903 2.15949e-19)
(56.1604 8.78982 -1.18637e-19)
(56.2847 8.72567 0)
(56.3763 8.65216 -1.10764e-20)
(56.4386 8.57338 0)
(56.479 8.50813 2.71524e-19)
(56.5189 8.36594 -2.91026e-19)
(56.5309 8.40136 0)
(56.6029 8.20277 0)
(51.3055 9.01672 0)
(51.3054 9.01925 -6.01929e-20)
(51.306 9.01876 -1.35902e-21)
(51.3065 9.01882 -9.55396e-20)
(51.307 9.01863 -3.66122e-20)
(51.3077 9.01827 6.79776e-21)
(51.3086 9.01774 3.08444e-20)
(51.3098 9.01692 1.21169e-23)
(51.3114 9.01578 -1.56703e-19)
(51.3136 9.01417 1.78414e-19)
(51.3164 9.01198 -1.42687e-23)
(51.3205 9.00879 -4.00029e-19)
(51.326 9.00402 -2.85863e-23)
(51.3339 8.99675 -6.51335e-19)
(51.3457 8.98588 4.73372e-19)
(51.3647 8.96961 5.92764e-19)
(51.394 8.94685 -3.64647e-23)
(51.4381 8.91684 0)
(51.4998 8.88004 0)
(51.581 8.83587 7.17651e-19)
(51.6803 8.78806 -5.28932e-22)
(51.7983 8.72812 -2.00462e-21)
(51.9508 8.65342 -5.69331e-19)
(52.1255 8.55282 -6.36017e-19)
(52.3733 8.42415 2.29357e-21)
(52.6793 8.29029 -2.85582e-21)
(52.9851 8.19618 -2.11638e-19)
(53.2768 8.15467 2.42867e-19)
(53.5435 8.1569 9.65103e-21)
(53.788 8.19884 8.14497e-20)
(54.0142 8.26539 1.27064e-19)
(54.2313 8.34878 -8.46872e-20)
(54.4472 8.4399 2.10983e-20)
(54.6685 8.5302 2.57351e-20)
(54.8969 8.61047 -9.52089e-20)
(55.1303 8.67225 -7.94618e-20)
(55.3612 8.70846 5.02274e-20)
(55.5798 8.71609 1.25442e-19)
(55.7755 8.69612 0)
(55.9412 8.65333 -2.4352e-20)
(56.0731 8.59371 1.39584e-19)
(56.1706 8.52329 -1.32395e-19)
(56.2367 8.44691 -1.98454e-19)
(56.2758 8.36831 2.23262e-19)
(56.2952 8.30474 -1.62439e-20)
(56.3163 8.1692 0)
(56.3134 8.20616 1.05304e-20)
(56.3694 8.02004 3.62499e-19)
(51.3055 9.01665 0)
(51.3054 9.01923 0)
(51.306 9.01872 1.00771e-19)
(51.3065 9.01879 4.91535e-20)
(51.307 9.01859 3.66306e-20)
(51.3077 9.01821 3.66954e-22)
(51.3086 9.01767 0)
(51.3098 9.01682 0)
(51.3114 9.01565 1.56737e-19)
(51.3135 9.01399 1.62095e-21)
(51.3164 9.01172 3.91003e-19)
(51.3204 9.00841 4.04093e-23)
(51.3259 9.00346 3.87192e-19)
(51.3337 8.9959 -9.12422e-21)
(51.3454 8.98457 0)
(51.3642 8.96755 1.0241e-20)
(51.3933 8.94367 -6.17894e-24)
(51.437 8.91206 1.81985e-23)
(51.4984 8.87315 -2.29337e-22)
(51.5793 8.8263 7.39673e-22)
(51.6781 8.77533 -5.36566e-22)
(51.7962 8.71113 9.89931e-19)
(51.9476 8.63113 -5.93088e-19)
(52.1214 8.52279 -1.25045e-20)
(52.3677 8.38321 -3.06874e-19)
(52.6731 8.23697 -3.64257e-19)
(52.9793 8.13279 -9.31181e-21)
(53.2729 8.08434 -1.20472e-19)
(53.5421 8.08239 0)
(53.7897 8.1221 -1.8693e-19)
(54.0194 8.18684 -9.88352e-20)
(54.2401 8.26733 -1.75353e-20)
(54.4591 8.35308 8.61552e-20)
(54.682 8.43448 -2.63497e-20)
(54.9089 8.5019 -3.3589e-20)
(55.136 8.5476 -8.289e-20)
(55.3547 8.56621 -5.14359e-20)
(55.5552 8.5569 3.25725e-20)
(55.7286 8.52267 8.216e-20)
(55.8694 8.46939 -2.0436e-19)
(55.9761 8.40324 1.10934e-19)
(56.0492 8.3298 1.38299e-19)
(56.0929 8.25326 -1.55224e-19)
(56.1116 8.1766 -2.31373e-19)
(56.1131 8.11597 2.88601e-19)
(56.1181 7.98742 9.82885e-21)
(56.1036 8.02596 -1.05973e-20)
(56.1463 7.85188 -3.73846e-19)
(51.3055 9.01656 -2.23731e-19)
(51.3054 9.0192 4.12157e-23)
(51.306 9.01868 -2.21177e-23)
(51.3065 9.01875 -1.48836e-19)
(51.307 9.01854 3.85152e-20)
(51.3077 9.01815 -7.16868e-21)
(51.3085 9.01759 -6.96104e-24)
(51.3098 9.01672 -1.93591e-24)
(51.3114 9.01551 1.47816e-23)
(51.3135 9.01379 1.60508e-21)
(51.3163 9.01144 -7.8676e-19)
(51.3204 9.008 -6.64116e-23)
(51.3258 9.00286 -1.17187e-18)
(51.3335 8.99499 -9.19907e-21)
(51.3451 8.98317 -6.31018e-24)
(51.3637 8.96535 -1.21695e-18)
(51.3924 8.94027 2.70931e-19)
(51.4358 8.90696 0)
(51.4968 8.86579 -1.16126e-22)
(51.5773 8.81607 1.33291e-22)
(51.6757 8.76173 -6.82846e-19)
(51.794 8.69305 1.37296e-20)
(51.9438 8.60739 5.92067e-19)
(52.1172 8.49095 6.46257e-19)
(52.3614 8.33981 6.23465e-19)
(52.6663 8.18054 5.43439e-19)
(52.9728 8.06559 4.38747e-19)
(53.2687 8.00968 2.58873e-19)
(53.5406 8.00304 9.62002e-21)
(53.7917 8.04 8.21266e-20)
(54.025 8.10227 -1.42903e-20)
(54.2492 8.17905 3.5368e-20)
(54.4707 8.25848 -8.63402e-20)
(54.694 8.33015 -2.70243e-20)
(54.9174 8.3844 6.64005e-20)
(55.1357 8.41466 -1.14474e-21)
(55.34 8.41753 0)
(55.521 8.39416 -3.38854e-20)
(55.6718 8.3491 0)
(55.7889 8.28886 -1.05769e-19)
(55.8726 8.21933 -1.08668e-21)
(55.924 8.14544 3.02918e-19)
(55.9479 8.07079 -1.96396e-19)
(55.9496 7.99772 -2.38096e-19)
(55.9356 7.94096 -1.80865e-20)
(55.9273 7.82015 3.09969e-19)
(55.9034 7.86033 0)
(55.9348 7.69775 3.73447e-19)
(51.3055 9.01647 4.49586e-19)
(51.3054 9.01918 0)
(51.306 9.01864 -1.04925e-19)
(51.3065 9.01871 1.50254e-19)
(51.307 9.01849 -3.85319e-20)
(51.3077 9.0181 7.92262e-21)
(51.3085 9.01751 -1.53543e-24)
(51.3098 9.01661 6.1321e-20)
(51.3113 9.01536 -1.4396e-23)
(51.3135 9.01358 -1.81784e-19)
(51.3163 9.01114 3.95685e-19)
(51.3203 9.00758 0)
(51.3257 9.00223 7.84766e-19)
(51.3334 8.99403 6.7045e-19)
(51.3448 8.98167 -1.00819e-18)
(51.3632 8.963 1.23819e-18)
(51.3915 8.93664 5.32993e-21)
(51.4344 8.90149 -3.80173e-24)
(51.4948 8.8579 6.31875e-23)
(51.5749 8.80511 7.56987e-19)
(51.6728 8.74715 1.37489e-18)
(51.7911 8.67371 -1.00178e-18)
(51.9396 8.58214 6.11564e-19)
(52.1122 8.45713 -6.69252e-19)
(52.3545 8.29387 -3.11623e-19)
(52.6586 8.12082 2.49915e-21)
(52.9655 7.99447 -2.17361e-19)
(53.2637 7.93047 -1.22227e-19)
(53.5386 7.91859 -1.00361e-20)
(53.7934 7.9522 -1.18702e-20)
(54.0304 8.01135 1.48014e-20)
(54.2579 8.08362 0)
(54.4811 8.15592 -1.11756e-19)
(54.7033 8.21734 8.33503e-20)
(54.9213 8.25859 0)
(55.1289 8.27462 4.27579e-20)
(55.3171 8.264 -5.50342e-20)
(55.4782 8.22954 6.74808e-20)
(55.6069 8.1769 0)
(55.7024 8.1126 -1.08664e-19)
(55.7649 8.04205 1.68066e-19)
(55.7979 7.96959 -4.67093e-22)
(55.8041 7.89799 -2.50664e-20)
(55.7922 7.82928 0)
(55.7642 7.77679 -2.87895e-19)
(55.7461 7.6639 3.28671e-19)
(55.7133 7.7054 -3.63799e-19)
(55.7353 7.55441 3.83111e-19)
(51.3055 9.01638 -2.2591e-19)
(51.3054 9.01915 0)
(51.306 9.01859 2.11289e-19)
(51.3065 9.01866 -1.53027e-19)
(51.307 9.01844 0)
(51.3077 9.01803 3.84244e-22)
(51.3085 9.01743 2.92142e-20)
(51.3098 9.0165 -1.2285e-19)
(51.3113 9.0152 3.71878e-25)
(51.3134 9.01336 1.85047e-19)
(51.3162 9.01083 7.88591e-23)
(51.3202 9.00712 1.3619e-22)
(51.3256 9.00156 -1.63789e-22)
(51.3332 8.99301 0)
(51.3445 8.98008 1.00871e-18)
(51.3626 8.9605 -6.24752e-19)
(51.3905 8.93276 -2.76355e-19)
(51.4328 8.89565 -3.95498e-23)
(51.4926 8.84947 2.80118e-19)
(51.572 8.79339 -1.52268e-18)
(51.6694 8.73159 -6.91889e-19)
(51.7879 8.65313 -4.40318e-22)
(51.9348 8.55528 -6.10256e-19)
(52.1068 8.42133 6.64264e-19)
(52.3467 8.24528 4.86131e-21)
(52.6502 8.05778 -3.5454e-21)
(52.9574 7.91929 0)
(53.2582 7.8466 0)
(53.5364 7.82892 -1.51489e-19)
(53.7952 7.85858 -9.83733e-20)
(54.036 7.91394 -2.53366e-22)
(54.2664 7.98099 -1.94878e-22)
(54.4906 8.04555 -2.45097e-20)
(54.7102 8.09651 1.26188e-21)
(54.9209 8.12539 0)
(55.1159 8.12881 -4.48319e-20)
(55.2871 8.10711 1.69072e-19)
(55.4281 8.06446 -3.53847e-20)
(55.5364 8.00713 0)
(55.6116 7.9411 1.11445e-19)
(55.6555 7.87151 1.64167e-21)
(55.672 7.8017 -1.48856e-19)
(55.6637 7.73405 2.62543e-20)
(55.6393 7.66985 -1.57904e-20)
(55.6004 7.62184 1.86009e-20)
(55.5735 7.51617 -2.12787e-20)
(55.5326 7.55839 0)
(55.5474 7.41824 -1.23968e-20)
(51.3055 9.01629 1.95531e-23)
(51.3054 9.01912 -4.26485e-23)
(51.306 9.01855 -1.06342e-19)
(51.3065 9.01862 1.02516e-19)
(51.307 9.01839 0)
(51.3077 9.01797 -2.57191e-20)
(51.3085 9.01734 -2.92354e-20)
(51.3097 9.01638 -1.04688e-22)
(51.3113 9.01504 5.97278e-23)
(51.3134 9.01313 -1.85184e-19)
(51.3162 9.0105 -7.02895e-23)
(51.3202 9.00665 -4.293e-19)
(51.3255 9.00085 -8.14995e-19)
(51.333 8.99192 6.98063e-19)
(51.3441 8.97838 -1.03978e-18)
(51.3619 8.95782 -6.47025e-19)
(51.3893 8.92861 9.06674e-23)
(51.4309 8.8894 8.1555e-23)
(51.4899 8.84043 -2.79893e-19)
(51.5687 8.78085 -8.8043e-21)
(51.6654 8.71492 1.41385e-22)
(51.7839 8.63115 5.41747e-22)
(51.9295 8.52674 6.32752e-19)
(52.1007 8.38338 0)
(52.3383 8.19399 1.64336e-19)
(52.6407 7.99127 2.52194e-21)
(52.9483 7.83997 -1.12952e-19)