/*--------------------------------*- C++ -*----------------------------------*\
  =========                 |
  \\      /  F ield         | OpenFOAM: The Open Source CFD Toolbox
   \\    /   O peration     | Website:  https://openfoam.org
    \\  /    A nd           | Version:  10
     \\/     M anipulation  |
\*---------------------------------------------------------------------------*/
FoamFile
{
    format      ascii;
    class       volScalarField;
    location    "5";
    object      nut;
}
// * * * * * * * * * * * * * * * * * * * * * * * * * * * * * * * * * * * * * //

dimensions      [0 2 -1 0 0 0 0];

internalField   nonuniform List<scalar> 
38016
(
1.81599e-06
1.81599e-06
1.81599e-06
1.81599e-06
1.81599e-06
1.81599e-06
1.81599e-06
1.81599e-06
1.81599e-06
1.81599e-06
1.81599e-06
1.81599e-06
1.81599e-06
1.81599e-06
1.81599e-06
1.81599e-06
1.81599e-06
1.816e-06
1.816e-06
1.81601e-06
1.81602e-06
1.81602e-06
1.81612e-06
1.81614e-06
1.81644e-06
1.81657e-06
1.81706e-06
1.81739e-06
1.81789e-06
1.81851e-06
1.81919e-06
1.81997e-06
1.82087e-06
1.82187e-06
1.82296e-06
1.82416e-06
1.82544e-06
1.82686e-06
1.82831e-06
1.82982e-06
1.8314e-06
1.83287e-06
1.8344e-06
1.83592e-06
1.83739e-06
1.8388e-06
1.84007e-06
1.84095e-06
1.816e-06
1.816e-06
1.81599e-06
1.81599e-06
1.81599e-06
1.81599e-06
1.81599e-06
1.81599e-06
1.81599e-06
1.81599e-06
1.81599e-06
1.81599e-06
1.81599e-06
1.81599e-06
1.81599e-06
1.81599e-06
1.81599e-06
1.81599e-06
1.81599e-06
1.81599e-06
1.816e-06
1.816e-06
1.81604e-06
1.81603e-06
1.81617e-06
1.81631e-06
1.81668e-06
1.81705e-06
1.81756e-06
1.8182e-06
1.81893e-06
1.81976e-06
1.82073e-06
1.8218e-06
1.82298e-06
1.82427e-06
1.82567e-06
1.82714e-06
1.82868e-06
1.83027e-06
1.83186e-06
1.83348e-06
1.83508e-06
1.83664e-06
1.83815e-06
1.83956e-06
1.84079e-06
1.84222e-06
1.81599e-06
1.81599e-06
1.81599e-06
1.81599e-06
1.81599e-06
1.81599e-06
1.81599e-06
1.81599e-06
1.81599e-06
1.81599e-06
1.81599e-06
1.81599e-06
1.81599e-06
1.81599e-06
1.81599e-06
1.81599e-06
1.81599e-06
1.81599e-06
1.816e-06
1.81601e-06
1.81602e-06
1.81603e-06
1.8161e-06
1.81614e-06
1.81634e-06
1.81648e-06
1.81686e-06
1.81718e-06
1.81764e-06
1.81822e-06
1.81886e-06
1.81961e-06
1.82048e-06
1.82143e-06
1.82247e-06
1.8236e-06
1.82483e-06
1.82616e-06
1.82753e-06
1.82895e-06
1.83039e-06
1.83179e-06
1.83318e-06
1.83452e-06
1.83572e-06
1.83674e-06
1.83732e-06
1.83704e-06
1.816e-06
1.816e-06
1.81599e-06
1.81599e-06
1.81599e-06
1.81599e-06
1.81599e-06
1.81599e-06
1.81599e-06
1.81599e-06
1.81599e-06
1.81599e-06
1.81599e-06
1.81599e-06
1.81599e-06
1.81599e-06
1.81599e-06
1.81599e-06
1.816e-06
1.816e-06
1.81601e-06
1.81601e-06
1.81607e-06
1.81608e-06
1.81625e-06
1.81639e-06
1.81675e-06
1.81708e-06
1.81754e-06
1.81811e-06
1.81875e-06
1.81948e-06
1.82031e-06
1.82124e-06
1.82224e-06
1.82333e-06
1.82451e-06
1.82577e-06
1.82706e-06
1.82839e-06
1.82974e-06
1.83107e-06
1.83239e-06
1.83363e-06
1.83477e-06
1.83569e-06
1.83635e-06
1.83628e-06
1.81599e-06
1.81599e-06
1.81599e-06
1.81599e-06
1.81599e-06
1.81599e-06
1.81599e-06
1.81599e-06
1.81599e-06
1.81599e-06
1.81599e-06
1.81599e-06
1.81599e-06
1.81599e-06
1.81599e-06
1.81599e-06
1.81599e-06
1.81599e-06
1.816e-06
1.816e-06
1.81601e-06
1.81602e-06
1.81607e-06
1.81611e-06
1.81627e-06
1.81641e-06
1.81675e-06
1.81707e-06
1.81751e-06
1.81808e-06
1.81871e-06
1.81943e-06
1.82028e-06
1.82122e-06
1.82223e-06
1.82333e-06
1.82453e-06
1.82581e-06
1.82713e-06
1.82849e-06
1.82985e-06
1.83118e-06
1.83246e-06
1.83366e-06
1.8347e-06
1.83558e-06
1.83601e-06
1.83562e-06
1.816e-06
1.816e-06
1.81599e-06
1.81599e-06
1.81599e-06
1.81599e-06
1.81599e-06
1.81599e-06
1.81599e-06
1.81599e-06
1.81599e-06
1.81599e-06
1.81599e-06
1.81599e-06
1.81599e-06
1.81599e-06
1.81599e-06
1.81599e-06
1.816e-06
1.816e-06
1.81601e-06
1.81602e-06
1.81608e-06
1.81612e-06
1.81629e-06
1.81646e-06
1.81682e-06
1.81718e-06
1.81768e-06
1.81829e-06
1.81896e-06
1.81974e-06
1.82063e-06
1.82162e-06
1.82268e-06
1.82384e-06
1.82509e-06
1.8264e-06
1.82774e-06
1.82911e-06
1.83047e-06
1.8318e-06
1.83306e-06
1.8342e-06
1.83526e-06
1.83604e-06
1.83656e-06
1.83609e-06
1.81599e-06
1.81599e-06
1.81599e-06
1.81599e-06
1.81599e-06
1.81599e-06
1.81599e-06
1.81599e-06
1.81599e-06
1.81599e-06
1.81599e-06
1.81599e-06
1.81599e-06
1.81599e-06
1.81599e-06
1.81599e-06
1.81599e-06
1.81599e-06
1.816e-06
1.81601e-06
1.81602e-06
1.81603e-06
1.81608e-06
1.81613e-06
1.81629e-06
1.81647e-06
1.81684e-06
1.81722e-06
1.81773e-06
1.81837e-06
1.81908e-06
1.8199e-06
1.82085e-06
1.8219e-06
1.82302e-06
1.82424e-06
1.82556e-06
1.82694e-06
1.82834e-06
1.82975e-06
1.83114e-06
1.83246e-06
1.83367e-06
1.8348e-06
1.83574e-06
1.83654e-06
1.83696e-06
1.83658e-06
1.816e-06
1.816e-06
1.81599e-06
1.81599e-06
1.81599e-06
1.81599e-06
1.81599e-06
1.81599e-06
1.81599e-06
1.81599e-06
1.81599e-06
1.81599e-06
1.81599e-06
1.81599e-06
1.81599e-06
1.81599e-06
1.81599e-06
1.81599e-06
1.816e-06
1.81601e-06
1.81602e-06
1.81604e-06
1.81609e-06
1.81615e-06
1.81632e-06
1.81653e-06
1.81691e-06
1.81733e-06
1.81788e-06
1.81856e-06
1.81932e-06
1.8202e-06
1.8212e-06
1.8223e-06
1.82347e-06
1.82474e-06
1.8261e-06
1.82749e-06
1.8289e-06
1.83029e-06
1.83164e-06
1.8329e-06
1.83404e-06
1.83509e-06
1.83599e-06
1.83668e-06
1.83709e-06
1.83671e-06
1.81599e-06
1.81599e-06
1.81599e-06
1.81599e-06
1.81599e-06
1.81599e-06
1.81599e-06
1.81599e-06
1.81599e-06
1.81599e-06
1.81599e-06
1.81599e-06
1.81599e-06
1.81599e-06
1.81599e-06
1.81599e-06
1.81599e-06
1.816e-06
1.816e-06
1.81601e-06
1.81602e-06
1.81604e-06
1.81609e-06
1.81616e-06
1.81633e-06
1.81655e-06
1.81695e-06
1.81739e-06
1.81797e-06
1.81869e-06
1.81948e-06
1.82041e-06
1.82145e-06
1.82263e-06
1.82382e-06
1.82516e-06
1.82654e-06
1.82797e-06
1.82939e-06
1.83076e-06
1.83206e-06
1.83323e-06
1.83432e-06
1.83523e-06
1.83611e-06
1.83662e-06
1.83712e-06
1.83681e-06
1.816e-06
1.816e-06
1.81599e-06
1.81599e-06
1.81599e-06
1.81599e-06
1.81599e-06
1.81599e-06
1.81599e-06
1.81599e-06
1.81599e-06
1.81599e-06
1.81599e-06
1.81599e-06
1.81599e-06
1.81599e-06
1.81599e-06
1.816e-06
1.816e-06
1.81601e-06
1.81602e-06
1.81605e-06
1.8161e-06
1.81617e-06
1.81635e-06
1.8166e-06
1.81701e-06
1.81749e-06
1.81812e-06
1.81887e-06
1.81972e-06
1.82069e-06
1.82178e-06
1.823e-06
1.82425e-06
1.82562e-06
1.82702e-06
1.82844e-06
1.82982e-06
1.83114e-06
1.83235e-06
1.83343e-06
1.8344e-06
1.83528e-06
1.83592e-06
1.83652e-06
1.83685e-06
1.83671e-06
1.81599e-06
1.81599e-06
1.81599e-06
1.81599e-06
1.81599e-06
1.81599e-06
1.81599e-06
1.81599e-06
1.81599e-06
1.81599e-06
1.81599e-06
1.81599e-06
1.81599e-06
1.81599e-06
1.81599e-06
1.81599e-06
1.81599e-06
1.816e-06
1.816e-06
1.81601e-06
1.81603e-06
1.81605e-06
1.81611e-06
1.81619e-06
1.81637e-06
1.81663e-06
1.81707e-06
1.81757e-06
1.81823e-06
1.81903e-06
1.81991e-06
1.82093e-06
1.82206e-06
1.82334e-06
1.82462e-06
1.82601e-06
1.82743e-06
1.82883e-06
1.83018e-06
1.83143e-06
1.83253e-06
1.83353e-06
1.83435e-06
1.83515e-06
1.83565e-06
1.83616e-06
1.83643e-06
1.83665e-06
1.816e-06
1.816e-06
1.81599e-06
1.81599e-06
1.81599e-06
1.81599e-06
1.81599e-06
1.81599e-06
1.81599e-06
1.81599e-06
1.81599e-06
1.81599e-06
1.81599e-06
1.81599e-06
1.81599e-06
1.81599e-06
1.81599e-06
1.816e-06
1.816e-06
1.81601e-06
1.81603e-06
1.81606e-06
1.81611e-06
1.8162e-06
1.81639e-06
1.81668e-06
1.81713e-06
1.81767e-06
1.81838e-06
1.81921e-06
1.82015e-06
1.82121e-06
1.82239e-06
1.82369e-06
1.82502e-06
1.82642e-06
1.82782e-06
1.82918e-06
1.83046e-06
1.83161e-06
1.8326e-06
1.83347e-06
1.83424e-06
1.83479e-06
1.83533e-06
1.8356e-06
1.8361e-06
1.83654e-06
1.81599e-06
1.81599e-06
1.81599e-06
1.81599e-06
1.81599e-06
1.81599e-06
1.81599e-06
1.81599e-06
1.81599e-06
1.81599e-06
1.81599e-06
1.81599e-06
1.81599e-06
1.81599e-06
1.81599e-06
1.81599e-06
1.81599e-06
1.816e-06
1.816e-06
1.81602e-06
1.81603e-06
1.81606e-06
1.81612e-06
1.81622e-06
1.81642e-06
1.81672e-06
1.8172e-06
1.81776e-06
1.8185e-06
1.81938e-06
1.82035e-06
1.82146e-06
1.82267e-06
1.82401e-06
1.82536e-06
1.82676e-06
1.82814e-06
1.82945e-06
1.83065e-06
1.83168e-06
1.83258e-06
1.83329e-06
1.83398e-06
1.83437e-06
1.83479e-06
1.83506e-06
1.83555e-06
1.83637e-06
1.816e-06
1.816e-06
1.81599e-06
1.81599e-06
1.81599e-06
1.81599e-06
1.81599e-06
1.81599e-06
1.81599e-06
1.81599e-06
1.81599e-06
1.81599e-06
1.81599e-06
1.81599e-06
1.81599e-06
1.81599e-06
1.81599e-06
1.816e-06
1.81601e-06
1.81602e-06
1.81604e-06
1.81607e-06
1.81613e-06
1.81624e-06
1.81644e-06
1.81677e-06
1.81727e-06
1.81787e-06
1.81865e-06
1.81957e-06
1.82059e-06
1.82174e-06
1.82298e-06
1.82434e-06
1.8257e-06
1.82708e-06
1.82841e-06
1.82965e-06
1.83075e-06
1.83166e-06
1.83243e-06
1.83308e-06
1.83351e-06
1.83392e-06
1.83408e-06
1.83447e-06
1.83493e-06
1.83618e-06
1.81599e-06
1.81599e-06
1.81599e-06
1.81599e-06
1.81599e-06
1.81599e-06
1.81599e-06
1.81599e-06
1.81599e-06
1.81599e-06
1.81599e-06
1.81599e-06
1.81599e-06
1.81599e-06
1.81599e-06
1.81599e-06
1.81599e-06
1.816e-06
1.81601e-06
1.81602e-06
1.81604e-06
1.81608e-06
1.81614e-06
1.81625e-06
1.81647e-06
1.81681e-06
1.81734e-06
1.81797e-06
1.81878e-06
1.81974e-06
1.8208e-06
1.82199e-06
1.82324e-06
1.82463e-06
1.82599e-06
1.82735e-06
1.82862e-06
1.82978e-06
1.83076e-06
1.83157e-06
1.83217e-06
1.83274e-06
1.833e-06
1.83327e-06
1.83337e-06
1.83363e-06
1.83417e-06
1.83594e-06
1.816e-06
1.816e-06
1.81599e-06
1.81599e-06
1.81599e-06
1.81599e-06
1.81599e-06
1.81599e-06
1.81599e-06
1.81599e-06
1.81599e-06
1.81599e-06
1.81599e-06
1.81599e-06
1.81599e-06
1.81599e-06
1.816e-06
1.816e-06
1.81601e-06
1.81602e-06
1.81604e-06
1.81608e-06
1.81615e-06
1.81627e-06
1.8165e-06
1.81687e-06
1.81741e-06
1.81808e-06
1.81894e-06
1.81993e-06
1.82102e-06
1.82225e-06
1.82352e-06
1.8249e-06
1.82625e-06
1.82756e-06
1.82876e-06
1.82982e-06
1.83069e-06
1.83134e-06
1.83192e-06
1.8322e-06
1.83251e-06
1.8324e-06
1.83271e-06
1.83256e-06
1.83347e-06
1.83573e-06
1.81599e-06
1.81599e-06
1.81599e-06
1.81599e-06
1.81599e-06
1.81599e-06
1.81599e-06
1.81599e-06
1.81599e-06
1.81599e-06
1.81599e-06
1.81599e-06
1.81599e-06
1.81599e-06
1.81599e-06
1.81599e-06
1.81599e-06
1.816e-06
1.81601e-06
1.81603e-06
1.81605e-06
1.81609e-06
1.81616e-06
1.81629e-06
1.81653e-06
1.81691e-06
1.81749e-06
1.81818e-06
1.81908e-06
1.8201e-06
1.82122e-06
1.82248e-06
1.82376e-06
1.82514e-06
1.82647e-06
1.82771e-06
1.82884e-06
1.8298e-06
1.83053e-06
1.83108e-06
1.83148e-06
1.83169e-06
1.83176e-06
1.83164e-06
1.83173e-06
1.83174e-06
1.83263e-06
1.83548e-06
1.816e-06
1.816e-06
1.81599e-06
1.81599e-06
1.81599e-06
1.81599e-06
1.81599e-06
1.81599e-06
1.81599e-06
1.81599e-06
1.81599e-06
1.816e-06
1.81599e-06
1.81599e-06
1.81599e-06
1.81599e-06
1.816e-06
1.816e-06
1.81601e-06
1.81603e-06
1.81605e-06
1.8161e-06
1.81617e-06
1.81631e-06
1.81656e-06
1.81698e-06
1.81756e-06
1.8183e-06
1.81923e-06
1.82028e-06
1.82143e-06
1.82271e-06
1.82398e-06
1.82534e-06
1.82662e-06
1.8278e-06
1.82884e-06
1.82968e-06
1.83028e-06
1.83073e-06
1.831e-06
1.83105e-06
1.83102e-06
1.83073e-06
1.83079e-06
1.83077e-06
1.83183e-06
1.83525e-06
1.81599e-06
1.81599e-06
1.81599e-06
1.81599e-06
1.81599e-06
1.81599e-06
1.81599e-06
1.81599e-06
1.81599e-06
1.81599e-06
1.81599e-06
1.81599e-06
1.81599e-06
1.81599e-06
1.81599e-06
1.81599e-06
1.816e-06
1.816e-06
1.81601e-06
1.81603e-06
1.81606e-06
1.8161e-06
1.81619e-06
1.81633e-06
1.8166e-06
1.81702e-06
1.81765e-06
1.8184e-06
1.81937e-06
1.82045e-06
1.82161e-06
1.82292e-06
1.82418e-06
1.82551e-06
1.82674e-06
1.82784e-06
1.82878e-06
1.82949e-06
1.83001e-06
1.83025e-06
1.8305e-06
1.83031e-06
1.83018e-06
1.82981e-06
1.82971e-06
1.82991e-06
1.83098e-06
1.83502e-06
1.816e-06
1.816e-06
1.81599e-06
1.81599e-06
1.81599e-06
1.81599e-06
1.81599e-06
1.816e-06
1.81599e-06
1.816e-06
1.816e-06
1.816e-06
1.816e-06
1.81599e-06
1.81599e-06
1.81599e-06
1.816e-06
1.816e-06
1.81602e-06
1.81603e-06
1.81606e-06
1.81612e-06
1.8162e-06
1.81635e-06
1.81662e-06
1.81708e-06
1.81772e-06
1.81851e-06
1.8195e-06
1.8206e-06
1.82179e-06
1.82309e-06
1.82433e-06
1.82561e-06
1.82678e-06
1.8278e-06
1.82864e-06
1.82924e-06
1.82958e-06
1.82985e-06
1.82974e-06
1.8297e-06
1.82908e-06
1.82902e-06
1.8284e-06
1.82913e-06
1.82997e-06
1.83472e-06
1.81599e-06
1.81599e-06
1.81599e-06
1.81599e-06
1.81599e-06
1.81599e-06
1.81599e-06
1.81599e-06
1.81599e-06
1.81599e-06
1.81599e-06
1.81599e-06
1.81599e-06
1.81599e-06
1.81599e-06
1.81599e-06
1.816e-06
1.816e-06
1.81602e-06
1.81604e-06
1.81607e-06
1.81612e-06
1.81621e-06
1.81637e-06
1.81666e-06
1.81713e-06
1.81781e-06
1.81862e-06
1.81963e-06
1.82074e-06
1.82195e-06
1.82325e-06
1.82447e-06
1.8257e-06
1.82678e-06
1.82771e-06
1.82845e-06
1.82891e-06
1.82918e-06
1.82925e-06
1.82911e-06
1.82878e-06
1.8282e-06
1.82784e-06
1.82742e-06
1.82789e-06
1.8289e-06
1.8344e-06
1.816e-06
1.816e-06
1.81599e-06
1.81599e-06
1.81599e-06
1.81599e-06
1.81599e-06
1.816e-06
1.816e-06
1.816e-06
1.816e-06
1.816e-06
1.816e-06
1.816e-06
1.81599e-06
1.81599e-06
1.816e-06
1.816e-06
1.81602e-06
1.81604e-06
1.81607e-06
1.81613e-06
1.81622e-06
1.8164e-06
1.81669e-06
1.81719e-06
1.81787e-06
1.81871e-06
1.81975e-06
1.82086e-06
1.82207e-06
1.82335e-06
1.82453e-06
1.82569e-06
1.8267e-06
1.82754e-06
1.82816e-06
1.82851e-06
1.82869e-06
1.82866e-06
1.82834e-06
1.82794e-06
1.82718e-06
1.82682e-06
1.82639e-06
1.82684e-06
1.82795e-06
1.83422e-06
1.81599e-06
1.81599e-06
1.81599e-06
1.81599e-06
1.81599e-06
1.81599e-06
1.81599e-06
1.81599e-06
1.81599e-06
1.81599e-06
1.81599e-06
1.816e-06
1.81599e-06
1.816e-06
1.81599e-06
1.81599e-06
1.816e-06
1.81601e-06
1.81602e-06
1.81604e-06
1.81608e-06
1.81614e-06
1.81623e-06
1.81641e-06
1.81673e-06
1.81724e-06
1.81795e-06
1.81881e-06
1.81986e-06
1.82098e-06
1.82219e-06
1.82345e-06
1.82459e-06
1.82568e-06
1.82659e-06
1.82734e-06
1.82783e-06
1.82812e-06
1.82808e-06
1.82807e-06
1.82752e-06
1.827e-06
1.82627e-06
1.82571e-06
1.82569e-06
1.82559e-06
1.8269e-06
1.83387e-06
1.816e-06
1.816e-06
1.81599e-06
1.81599e-06
1.81599e-06
1.81599e-06
1.81599e-06
1.816e-06
1.816e-06
1.816e-06
1.816e-06
1.816e-06
1.816e-06
1.816e-06
1.81599e-06
1.81599e-06
1.816e-06
1.81601e-06
1.81602e-06
1.81604e-06
1.81608e-06
1.81615e-06
1.81625e-06
1.81643e-06
1.81675e-06
1.81729e-06
1.81801e-06
1.81889e-06
1.81994e-06
1.82105e-06
1.82224e-06
1.82346e-06
1.82455e-06
1.82555e-06
1.82639e-06
1.82703e-06
1.82744e-06
1.82754e-06
1.82763e-06
1.82718e-06
1.82692e-06
1.8258e-06
1.82569e-06
1.82436e-06
1.82547e-06
1.82397e-06
1.82626e-06
1.83364e-06
1.81599e-06
1.81599e-06
1.81599e-06
1.81599e-06
1.81599e-06
1.81599e-06
1.81599e-06
1.81599e-06
1.81599e-06
1.81599e-06
1.81599e-06
1.816e-06
1.816e-06
1.816e-06
1.81599e-06
1.81599e-06
1.816e-06
1.81601e-06
1.81602e-06
1.81605e-06
1.81609e-06
1.81615e-06
1.81626e-06
1.81645e-06
1.81679e-06
1.81733e-06
1.81808e-06
1.81897e-06
1.82003e-06
1.82112e-06
1.8223e-06
1.82349e-06
1.82452e-06
1.82543e-06
1.82617e-06
1.82672e-06
1.82697e-06
1.82706e-06
1.8269e-06
1.82649e-06
1.82593e-06
1.82497e-06
1.82466e-06
1.82383e-06
1.8245e-06
1.82363e-06
1.82578e-06
1.83338e-06
1.816e-06
1.816e-06
1.81599e-06
1.81599e-06
1.81599e-06
1.81599e-06
1.81599e-06
1.816e-06
1.816e-06
1.816e-06
1.816e-06
1.816e-06
1.816e-06
1.816e-06
1.81599e-06
1.81599e-06
1.816e-06
1.81601e-06
1.81603e-06
1.81605e-06
1.81609e-06
1.81616e-06
1.81627e-06
1.81647e-06
1.8168e-06
1.81737e-06
1.81812e-06
1.81902e-06
1.82007e-06
1.82114e-06
1.82228e-06
1.8234e-06
1.82435e-06
1.82519e-06
1.82584e-06
1.82628e-06
1.82646e-06
1.82642e-06
1.82623e-06
1.82562e-06
1.82505e-06
1.82401e-06
1.82397e-06
1.82294e-06
1.82341e-06
1.82224e-06
1.82552e-06
1.83314e-06
1.81599e-06
1.81599e-06
1.81599e-06
1.81599e-06
1.81599e-06
1.81599e-06
1.81599e-06
1.81599e-06
1.81599e-06
1.81599e-06
1.816e-06
1.816e-06
1.816e-06
1.816e-06
1.81599e-06
1.81599e-06
1.816e-06
1.81601e-06
1.81603e-06
1.81605e-06
1.8161e-06
1.81617e-06
1.81628e-06
1.81648e-06
1.81683e-06
1.81741e-06
1.81818e-06
1.81908e-06
1.82012e-06
1.82115e-06
1.82228e-06
1.82332e-06
1.82423e-06
1.82495e-06
1.82552e-06
1.82582e-06
1.82594e-06
1.82573e-06
1.82553e-06
1.82475e-06
1.82409e-06
1.82332e-06
1.823e-06
1.82236e-06
1.8225e-06
1.82301e-06
1.82545e-06
1.83354e-06
1.816e-06
1.816e-06
1.81599e-06
1.81599e-06
1.81599e-06
1.81599e-06
1.81599e-06
1.816e-06
1.816e-06
1.816e-06
1.816e-06
1.816e-06
1.816e-06
1.816e-06
1.81599e-06
1.81599e-06
1.816e-06
1.81601e-06
1.81603e-06
1.81606e-06
1.8161e-06
1.81618e-06
1.81629e-06
1.8165e-06
1.81684e-06
1.81742e-06
1.81819e-06
1.81909e-06
1.8201e-06
1.8211e-06
1.82216e-06
1.82313e-06
1.82395e-06
1.8246e-06
1.82507e-06
1.82531e-06
1.82524e-06
1.82518e-06
1.82455e-06
1.82412e-06
1.82293e-06
1.82303e-06
1.82164e-06
1.82242e-06
1.82117e-06
1.82281e-06
1.82492e-06
1.83319e-06
1.81599e-06
1.81599e-06
1.81599e-06
1.81599e-06
1.81599e-06
1.81599e-06
1.81599e-06
1.81599e-06
1.81599e-06
1.816e-06
1.816e-06
1.816e-06
1.816e-06
1.816e-06
1.81599e-06
1.81599e-06
1.816e-06
1.81601e-06
1.81603e-06
1.81606e-06
1.81611e-06
1.81618e-06
1.8163e-06
1.81651e-06
1.81686e-06
1.81744e-06
1.81822e-06
1.81912e-06
1.82011e-06
1.82106e-06
1.82207e-06
1.82297e-06
1.8237e-06
1.82427e-06
1.82464e-06
1.82473e-06
1.82468e-06
1.82437e-06
1.82386e-06
1.8231e-06
1.82245e-06
1.82202e-06
1.82156e-06
1.8211e-06
1.82072e-06
1.82122e-06
1.81859e-06
1.8295e-06
1.816e-06
1.816e-06
1.81599e-06
1.81599e-06
1.81599e-06
1.816e-06
1.816e-06
1.816e-06
1.816e-06
1.816e-06
1.816e-06
1.816e-06
1.816e-06
1.816e-06
1.816e-06
1.81599e-06
1.816e-06
1.81601e-06
1.81603e-06
1.81606e-06
1.81611e-06
1.81619e-06
1.81631e-06
1.81652e-06
1.81686e-06
1.81743e-06
1.8182e-06
1.81908e-06
1.82003e-06
1.82093e-06
1.82186e-06
1.82267e-06
1.82332e-06
1.82381e-06
1.82408e-06
1.82412e-06
1.82396e-06
1.82366e-06
1.823e-06
1.82238e-06
1.82176e-06
1.82141e-06
1.82076e-06
1.82123e-06
1.82152e-06
1.82156e-06
1.82632e-06
1.83409e-06
1.81599e-06
1.81599e-06
1.81599e-06
1.81599e-06
1.81599e-06
1.81599e-06
1.81599e-06
1.81599e-06
1.81599e-06
1.816e-06
1.816e-06
1.816e-06
1.816e-06
1.816e-06
1.81599e-06
1.81599e-06
1.816e-06
1.81601e-06
1.81603e-06
1.81607e-06
1.81612e-06
1.8162e-06
1.81632e-06
1.81653e-06
1.81687e-06
1.81743e-06
1.81818e-06
1.81905e-06
1.81997e-06
1.82082e-06
1.82169e-06
1.82242e-06
1.82298e-06
1.82337e-06
1.82354e-06
1.82352e-06
1.82323e-06
1.82289e-06
1.82217e-06
1.82158e-06
1.82118e-06
1.82063e-06
1.82067e-06
1.82061e-06
1.82078e-06
1.82013e-06
1.8139e-06
1.82703e-06
1.816e-06
1.816e-06
1.81599e-06
1.81599e-06
1.81599e-06
1.816e-06
1.816e-06
1.816e-06
1.816e-06
1.816e-06
1.816e-06
1.816e-06
1.816e-06
1.816e-06
1.816e-06
1.81599e-06
1.816e-06
1.81601e-06
1.81604e-06
1.81607e-06
1.81612e-06
1.81621e-06
1.81633e-06
1.81653e-06
1.81686e-06
1.8174e-06
1.81811e-06
1.81894e-06
1.81981e-06
1.82059e-06
1.82138e-06
1.82202e-06
1.8225e-06
1.82282e-06
1.82293e-06
1.82276e-06
1.82257e-06
1.82198e-06
1.82149e-06
1.8208e-06
1.82045e-06
1.81999e-06
1.82057e-06
1.82097e-06
1.82182e-06
1.82134e-06
1.82463e-06
1.83283e-06
1.81599e-06
1.81599e-06
1.81599e-06
1.81599e-06
1.81599e-06
1.81599e-06
1.81599e-06
1.81599e-06
1.816e-06
1.816e-06
1.816e-06
1.816e-06
1.816e-06
1.816e-06
1.816e-06
1.81599e-06
1.816e-06
1.81601e-06
1.81604e-06
1.81607e-06
1.81612e-06
1.8162e-06
1.81633e-06
1.81653e-06
1.81687e-06
1.81739e-06
1.81806e-06
1.81883e-06
1.81967e-06
1.8204e-06
1.82113e-06
1.82167e-06
1.82207e-06
1.8223e-06
1.82227e-06
1.82212e-06
1.82176e-06
1.82121e-06
1.82066e-06
1.82018e-06
1.81989e-06
1.81977e-06
1.82078e-06
1.82083e-06
1.82198e-06
1.82016e-06
1.8189e-06
1.82947e-06
1.816e-06
1.816e-06
1.81599e-06
1.81599e-06
1.81599e-06
1.816e-06
1.816e-06
1.816e-06
1.816e-06
1.816e-06
1.816e-06
1.816e-06
1.816e-06
1.816e-06
1.816e-06
1.81599e-06
1.816e-06
1.81601e-06
1.81604e-06
1.81607e-06
1.81612e-06
1.81621e-06
1.81633e-06
1.81652e-06
1.81684e-06
1.81734e-06
1.81795e-06
1.81865e-06
1.81941e-06
1.82008e-06
1.82071e-06
1.82118e-06
1.82151e-06
1.82166e-06
1.8216e-06
1.82135e-06
1.82097e-06
1.82037e-06
1.82002e-06
1.81937e-06
1.81945e-06
1.81988e-06
1.82108e-06
1.82239e-06
1.82423e-06
1.82066e-06
1.82242e-06
1.83032e-06
1.81599e-06
1.81599e-06
1.81599e-06
1.81599e-06
1.81599e-06
1.81599e-06
1.81599e-06
1.81599e-06
1.816e-06
1.816e-06
1.816e-06
1.816e-06
1.816e-06
1.816e-06
1.816e-06
1.81599e-06
1.816e-06
1.81602e-06
1.81604e-06
1.81607e-06
1.81613e-06
1.8162e-06
1.81633e-06
1.81652e-06
1.81683e-06
1.8173e-06
1.81788e-06
1.81851e-06
1.81919e-06
1.81979e-06
1.82035e-06
1.82075e-06
1.82099e-06
1.82106e-06
1.82095e-06
1.82057e-06
1.82024e-06
1.81958e-06
1.81934e-06
1.81898e-06
1.81928e-06
1.82042e-06
1.82215e-06
1.82463e-06
1.82498e-06
1.82393e-06
1.82332e-06
1.83077e-06
1.816e-06
1.816e-06
1.81599e-06
1.816e-06
1.816e-06
1.816e-06
1.816e-06
1.816e-06
1.816e-06
1.816e-06
1.816e-06
1.816e-06
1.816e-06
1.816e-06
1.816e-06
1.81599e-06
1.816e-06
1.81601e-06
1.81604e-06
1.81607e-06
1.81612e-06
1.81621e-06
1.81633e-06
1.8165e-06
1.81679e-06
1.81722e-06
1.81774e-06
1.81829e-06
1.81887e-06
1.81936e-06
1.81983e-06
1.82016e-06
1.82036e-06
1.82039e-06
1.82016e-06
1.81993e-06
1.81929e-06
1.81905e-06
1.8184e-06
1.81883e-06
1.81908e-06
1.82209e-06
1.82306e-06
1.82749e-06
1.82604e-06
1.82715e-06
1.82588e-06
1.83093e-06
1.81599e-06
1.81599e-06
1.81599e-06
1.81599e-06
1.81599e-06
1.81599e-06
1.81599e-06
1.816e-06
1.816e-06
1.816e-06
1.816e-06
1.816e-06
1.816e-06
1.816e-06
1.816e-06
1.81599e-06
1.816e-06
1.81601e-06
1.81604e-06
1.81608e-06
1.81613e-06
1.8162e-06
1.81632e-06
1.81649e-06
1.81676e-06
1.81717e-06
1.81764e-06
1.81813e-06
1.81864e-06
1.81905e-06
1.8194e-06
1.81965e-06
1.81978e-06
1.81972e-06
1.81954e-06
1.81909e-06
1.81861e-06
1.81828e-06
1.81797e-06
1.81834e-06
1.81952e-06
1.82268e-06
1.82494e-06
1.8273e-06
1.82572e-06
1.82754e-06
1.81867e-06
1.82465e-06
1.816e-06
1.816e-06
1.81599e-06
1.816e-06
1.816e-06
1.816e-06
1.816e-06
1.816e-06
1.816e-06
1.816e-06
1.816e-06
1.816e-06
1.816e-06
1.816e-06
1.816e-06
1.81599e-06
1.816e-06
1.81601e-06
1.81604e-06
1.81607e-06
1.81612e-06
1.8162e-06
1.81631e-06
1.81646e-06
1.81671e-06
1.81707e-06
1.81747e-06
1.81787e-06
1.8183e-06
1.81863e-06
1.81887e-06
1.81903e-06
1.81911e-06
1.81907e-06
1.81875e-06
1.81841e-06
1.81791e-06
1.81768e-06
1.81766e-06
1.81876e-06
1.82108e-06
1.82408e-06
1.82609e-06
1.82839e-06
1.83082e-06
1.82621e-06
1.83567e-06
1.83466e-06
1.81599e-06
1.81599e-06
1.81599e-06
1.81599e-06
1.81599e-06
1.81599e-06
1.81599e-06
1.816e-06
1.816e-06
1.816e-06
1.816e-06
1.816e-06
1.816e-06
1.816e-06
1.816e-06
1.81599e-06
1.816e-06
1.81601e-06
1.81604e-06
1.81607e-06
1.81613e-06
1.81619e-06
1.81629e-06
1.81644e-06
1.81667e-06
1.817e-06
1.81735e-06
1.81769e-06
1.81804e-06
1.81832e-06
1.81849e-06
1.81856e-06
1.81856e-06
1.81841e-06
1.81817e-06
1.81769e-06
1.81738e-06
1.81726e-06
1.81784e-06
1.81967e-06
1.82207e-06
1.82432e-06
1.82743e-06
1.82887e-06
1.82634e-06
1.82957e-06
1.81117e-06
1.81861e-06
1.816e-06
1.816e-06
1.81599e-06
1.816e-06
1.816e-06
1.816e-06
1.816e-06
1.816e-06
1.816e-06
1.816e-06
1.816e-06
1.816e-06
1.816e-06
1.816e-06
1.816e-06
1.81599e-06
1.816e-06
1.81601e-06
1.81604e-06
1.81607e-06
1.81611e-06
1.81619e-06
1.81628e-06
1.8164e-06
1.8166e-06
1.81688e-06
1.81716e-06
1.8174e-06
1.81767e-06
1.81788e-06
1.81798e-06
1.81801e-06
1.81796e-06
1.81783e-06
1.81748e-06
1.81717e-06
1.81704e-06
1.81729e-06
1.81875e-06
1.82073e-06
1.82341e-06
1.82581e-06
1.82903e-06
1.8294e-06
1.83433e-06
1.82465e-06
1.83857e-06
1.83541e-06
1.81599e-06
1.81599e-06
1.81599e-06
1.81599e-06
1.81599e-06
1.81599e-06
1.81599e-06
1.816e-06
1.816e-06
1.816e-06
1.816e-06
1.816e-06
1.816e-06
1.816e-06
1.816e-06
1.816e-06
1.816e-06
1.81601e-06
1.81603e-06
1.81607e-06
1.81612e-06
1.81617e-06
1.81626e-06
1.81638e-06
1.81656e-06
1.8168e-06
1.81703e-06
1.81723e-06
1.81742e-06
1.81757e-06
1.81759e-06
1.81756e-06
1.81747e-06
1.81726e-06
1.81703e-06
1.81675e-06
1.81694e-06
1.81799e-06
1.81988e-06
1.82165e-06
1.82483e-06
1.82697e-06
1.83104e-06
1.83239e-06
1.83051e-06
1.83329e-06
1.8113e-06
1.81759e-06
1.816e-06
1.816e-06
1.81599e-06
1.816e-06
1.816e-06
1.816e-06
1.816e-06
1.816e-06
1.816e-06
1.816e-06
1.816e-06
1.816e-06
1.816e-06
1.816e-06
1.816e-06
1.816e-06
1.816e-06
1.81601e-06
1.81603e-06
1.81606e-06
1.8161e-06
1.81617e-06
1.81624e-06
1.81633e-06
1.81648e-06
1.81666e-06
1.81682e-06
1.81694e-06
1.81705e-06
1.81713e-06
1.81712e-06
1.81706e-06
1.81695e-06
1.81679e-06
1.8166e-06
1.81666e-06
1.81751e-06
1.81894e-06
1.82075e-06
1.82289e-06
1.82587e-06
1.82851e-06
1.83228e-06
1.83242e-06
1.83739e-06
1.82614e-06
1.83799e-06
1.83443e-06
1.81599e-06
1.81599e-06
1.81599e-06
1.81599e-06
1.81599e-06
1.81599e-06
1.816e-06
1.816e-06
1.816e-06
1.816e-06
1.816e-06
1.816e-06
1.816e-06
1.816e-06
1.816e-06
1.816e-06
1.816e-06
1.81601e-06
1.81603e-06
1.81606e-06
1.8161e-06
1.81615e-06
1.81622e-06
1.8163e-06
1.81643e-06
1.81658e-06
1.81669e-06
1.81677e-06
1.81681e-06
1.81684e-06
1.81679e-06
1.81669e-06
1.81658e-06
1.81647e-06
1.81648e-06
1.81698e-06
1.81843e-06
1.81973e-06
1.82171e-06
1.82367e-06
1.82713e-06
1.82943e-06
1.83394e-06
1.83493e-06
1.83403e-06
1.83591e-06
1.8124e-06
1.81913e-06
1.816e-06
1.816e-06
1.81599e-06
1.816e-06
1.816e-06
1.816e-06
1.816e-06
1.816e-06
1.816e-06
1.816e-06
1.816e-06
1.816e-06
1.816e-06
1.816e-06
1.816e-06
1.816e-06
1.816e-06
1.81601e-06
1.81603e-06
1.81605e-06
1.81609e-06
1.81614e-06
1.8162e-06
1.81625e-06
1.81634e-06
1.81644e-06
1.81649e-06
1.8165e-06
1.81649e-06
1.81648e-06
1.81642e-06
1.81635e-06
1.81633e-06
1.81633e-06
1.8167e-06
1.81785e-06
1.81903e-06
1.82052e-06
1.82237e-06
1.82471e-06
1.82759e-06
1.83065e-06
1.834e-06
1.83501e-06
1.83728e-06
1.82902e-06
1.83058e-06
1.83144e-06
1.81599e-06
1.81599e-06
1.81599e-06
1.81599e-06
1.81599e-06
1.81599e-06
1.816e-06
1.816e-06
1.816e-06
1.816e-06
1.816e-06
1.816e-06
1.816e-06
1.816e-06
1.816e-06
1.816e-06
1.816e-06
1.81601e-06
1.81602e-06
1.81605e-06
1.81609e-06
1.81612e-06
1.81617e-06
1.81622e-06
1.81629e-06
1.81636e-06
1.81637e-06
1.81637e-06
1.81634e-06
1.81632e-06
1.81627e-06
1.81629e-06
1.81641e-06
1.8167e-06
1.81733e-06
1.81825e-06
1.81976e-06
1.82115e-06
1.82329e-06
1.8253e-06
1.82884e-06
1.83136e-06
1.83561e-06
1.83667e-06
1.83784e-06
1.83457e-06
1.82386e-06
1.82588e-06
1.816e-06
1.816e-06
1.816e-06
1.816e-06
1.816e-06
1.816e-06
1.816e-06
1.816e-06
1.816e-06
1.816e-06
1.816e-06
1.816e-06
1.816e-06
1.816e-06
1.816e-06
1.816e-06
1.816e-06
1.816e-06
1.81602e-06
1.81604e-06
1.81607e-06
1.8161e-06
1.81614e-06
1.81616e-06
1.8162e-06
1.81623e-06
1.81619e-06
1.81615e-06
1.81614e-06
1.81616e-06
1.81624e-06
1.81648e-06
1.81685e-06
1.81718e-06
1.81772e-06
1.81884e-06
1.82033e-06
1.82176e-06
1.82392e-06
1.82595e-06
1.82944e-06
1.83193e-06
1.83622e-06
1.83678e-06
1.83886e-06
1.83343e-06
1.82721e-06
1.82741e-06
1.81599e-06
1.81599e-06
1.816e-06
1.81599e-06
1.81599e-06
1.81599e-06
1.816e-06
1.816e-06
1.816e-06
1.816e-06
1.816e-06
1.816e-06
1.816e-06
1.816e-06
1.816e-06
1.816e-06
1.816e-06
1.816e-06
1.81602e-06
1.81604e-06
1.81607e-06
1.81608e-06
1.81611e-06
1.81613e-06
1.81616e-06
1.81617e-06
1.81613e-06
1.81614e-06
1.81621e-06
1.81635e-06
1.81655e-06
1.81685e-06
1.81717e-06
1.81747e-06
1.81811e-06
1.81923e-06
1.82089e-06
1.82225e-06
1.82457e-06
1.82631e-06
1.83024e-06
1.83206e-06
1.83732e-06
1.83647e-06
1.84032e-06
1.83375e-06
1.82665e-06
1.82634e-06
1.816e-06
1.816e-06
1.816e-06
1.816e-06
1.816e-06
1.816e-06
1.816e-06
1.816e-06
1.816e-06
1.816e-06
1.816e-06
1.816e-06
1.816e-06
1.816e-06
1.816e-06
1.816e-06
1.816e-06
1.816e-06
1.81601e-06
1.81602e-06
1.81604e-06
1.81607e-06
1.81608e-06
1.81608e-06
1.81608e-06
1.81606e-06
1.81604e-06
1.81613e-06
1.8163e-06
1.81649e-06
1.81668e-06
1.81697e-06
1.81736e-06
1.8177e-06
1.81841e-06
1.81961e-06
1.82136e-06
1.82262e-06
1.82509e-06
1.82652e-06
1.83085e-06
1.83173e-06
1.83847e-06
1.83468e-06
1.84187e-06
1.83021e-06
1.82451e-06
1.82652e-06
1.81599e-06
1.81599e-06
1.816e-06
1.81599e-06
1.81599e-06
1.81599e-06
1.816e-06
1.816e-06
1.816e-06
1.816e-06
1.816e-06
1.816e-06
1.816e-06
1.816e-06
1.816e-06
1.816e-06
1.816e-06
1.816e-06
1.81601e-06
1.81603e-06
1.81604e-06
1.81604e-06
1.81605e-06
1.81606e-06
1.81606e-06
1.81606e-06
1.81614e-06
1.81633e-06
1.81651e-06
1.81668e-06
1.81687e-06
1.81716e-06
1.8175e-06
1.81793e-06
1.81862e-06
1.8199e-06
1.82169e-06
1.82302e-06
1.82536e-06
1.82708e-06
1.83091e-06
1.83289e-06
1.83769e-06
1.83753e-06
1.83947e-06
1.83315e-06
1.82654e-06
1.82825e-06
1.816e-06
1.816e-06
1.816e-06
1.816e-06
1.816e-06
1.816e-06
1.816e-06
1.816e-06
1.816e-06
1.816e-06
1.816e-06
1.816e-06
1.816e-06
1.816e-06
1.816e-06
1.816e-06
1.816e-06
1.816e-06
1.816e-06
1.81601e-06
1.81602e-06
1.81603e-06
1.81603e-06
1.81602e-06
1.81602e-06
1.81606e-06
1.81619e-06
1.81637e-06
1.81654e-06
1.81673e-06
1.81693e-06
1.81715e-06
1.81754e-06
1.81791e-06
1.81875e-06
1.8201e-06
1.82189e-06
1.82325e-06
1.82552e-06
1.82726e-06
1.83096e-06
1.8328e-06
1.83776e-06
1.83677e-06
1.84012e-06
1.83202e-06
1.82491e-06
1.82803e-06
1.81599e-06
1.81599e-06
1.816e-06
1.81599e-06
1.81599e-06
1.81599e-06
1.816e-06
1.816e-06
1.816e-06
1.816e-06
1.816e-06
1.816e-06
1.816e-06
1.816e-06
1.816e-06
1.816e-06
1.816e-06
1.816e-06
1.816e-06
1.81601e-06
1.81602e-06
1.81601e-06
1.81601e-06
1.81603e-06
1.81608e-06
1.81617e-06
1.8163e-06
1.81649e-06
1.81668e-06
1.81687e-06
1.81701e-06
1.81718e-06
1.81745e-06
1.81795e-06
1.81873e-06
1.82018e-06
1.82198e-06
1.82337e-06
1.82538e-06
1.8273e-06
1.83038e-06
1.83281e-06
1.83621e-06
1.83708e-06
1.83729e-06
1.83173e-06
1.82377e-06
1.82941e-06
1.816e-06
1.816e-06
1.816e-06
1.816e-06
1.816e-06
1.816e-06
1.816e-06
1.816e-06
1.816e-06
1.816e-06
1.816e-06
1.816e-06
1.816e-06
1.816e-06
1.816e-06
1.816e-06
1.816e-06
1.816e-06
1.816e-06
1.816e-06
1.816e-06
1.816e-06
1.81601e-06
1.81606e-06
1.8161e-06
1.81617e-06
1.8163e-06
1.81647e-06
1.81663e-06
1.8168e-06
1.81696e-06
1.81709e-06
1.81735e-06
1.81766e-06
1.81861e-06
1.82013e-06
1.82189e-06
1.82334e-06
1.82524e-06
1.82716e-06
1.83004e-06
1.8323e-06
1.8357e-06
1.83591e-06
1.83678e-06
1.83078e-06
1.82383e-06
1.82737e-06
1.81599e-06
1.81599e-06
1.816e-06
1.81599e-06
1.81599e-06
1.816e-06
1.816e-06
1.816e-06
1.816e-06
1.816e-06
1.816e-06
1.816e-06
1.816e-06
1.816e-06
1.816e-06
1.816e-06
1.816e-06
1.816e-06
1.816e-06
1.816e-06
1.81601e-06
1.816e-06
1.81604e-06
1.81611e-06
1.81616e-06
1.81624e-06
1.81637e-06
1.81653e-06
1.81669e-06
1.81684e-06
1.81698e-06
1.81707e-06
1.81711e-06
1.81749e-06