/*--------------------------------*- C++ -*----------------------------------*\
  =========                 |
  \\      /  F ield         | OpenFOAM: The Open Source CFD Toolbox
   \\    /   O peration     | Website:  https://openfoam.org
    \\  /    A nd           | Version:  10
     \\/     M anipulation  |
\*---------------------------------------------------------------------------*/
FoamFile
{
    format      ascii;
    class       volScalarField;
    location    "5";
    object      nuTilda;
}
// * * * * * * * * * * * * * * * * * * * * * * * * * * * * * * * * * * * * * //

dimensions      [0 2 -1 0 0 0 0];

internalField   nonuniform List<scalar> 
38016
(
2.6e-05
2.6e-05
2.6e-05
2.6e-05
2.6e-05
2.6e-05
2.6e-05
2.6e-05
2.6e-05
2.6e-05
2.6e-05
2.6e-05
2.6e-05
2.6e-05
2.6e-05
2.6e-05
2.6e-05
2.6e-05
2.6e-05
2.60001e-05
2.60001e-05
2.60001e-05
2.60005e-05
2.60005e-05
2.60017e-05
2.60025e-05
2.60046e-05
2.60064e-05
2.60089e-05
2.6012e-05
2.60154e-05
2.60193e-05
2.60238e-05
2.60288e-05
2.60343e-05
2.60403e-05
2.60467e-05
2.60537e-05
2.60609e-05
2.60683e-05
2.60759e-05
2.60832e-05
2.60906e-05
2.60979e-05
2.61048e-05
2.61113e-05
2.61169e-05
2.6122e-05
2.6e-05
2.6e-05
2.6e-05
2.6e-05
2.6e-05
2.6e-05
2.6e-05
2.6e-05
2.6e-05
2.6e-05
2.6e-05
2.6e-05
2.6e-05
2.6e-05
2.6e-05
2.6e-05
2.6e-05
2.6e-05
2.6e-05
2.6e-05
2.6e-05
2.60001e-05
2.60002e-05
2.60002e-05
2.60008e-05
2.60015e-05
2.60031e-05
2.60049e-05
2.60074e-05
2.60104e-05
2.60138e-05
2.60178e-05
2.60223e-05
2.60274e-05
2.60329e-05
2.60389e-05
2.60454e-05
2.60522e-05
2.60593e-05
2.60665e-05
2.60738e-05
2.60811e-05
2.60882e-05
2.6095e-05
2.61015e-05
2.61072e-05
2.61117e-05
2.61178e-05
2.6e-05
2.6e-05
2.6e-05
2.6e-05
2.6e-05
2.6e-05
2.6e-05
2.6e-05
2.6e-05
2.6e-05
2.6e-05
2.6e-05
2.6e-05
2.6e-05
2.6e-05
2.6e-05
2.6e-05
2.6e-05
2.6e-05
2.60001e-05
2.60001e-05
2.60002e-05
2.60005e-05
2.60007e-05
2.60017e-05
2.60024e-05
2.60042e-05
2.60058e-05
2.60079e-05
2.60106e-05
2.60136e-05
2.60171e-05
2.60211e-05
2.60255e-05
2.60302e-05
2.60353e-05
2.60409e-05
2.60468e-05
2.60529e-05
2.60592e-05
2.60656e-05
2.60716e-05
2.60776e-05
2.60833e-05
2.60882e-05
2.60921e-05
2.60937e-05
2.60914e-05
2.6e-05
2.6e-05
2.6e-05
2.6e-05
2.6e-05
2.6e-05
2.6e-05
2.6e-05
2.6e-05
2.6e-05
2.6e-05
2.6e-05
2.6e-05
2.6e-05
2.6e-05
2.6e-05
2.6e-05
2.6e-05
2.6e-05
2.6e-05
2.60001e-05
2.60001e-05
2.60003e-05
2.60004e-05
2.60011e-05
2.60018e-05
2.60035e-05
2.60051e-05
2.60073e-05
2.60101e-05
2.60131e-05
2.60166e-05
2.60206e-05
2.6025e-05
2.60298e-05
2.60349e-05
2.60404e-05
2.60463e-05
2.60522e-05
2.60583e-05
2.60644e-05
2.60704e-05
2.60763e-05
2.60817e-05
2.60866e-05
2.60905e-05
2.60932e-05
2.60936e-05
2.6e-05
2.6e-05
2.6e-05
2.6e-05
2.6e-05
2.6e-05
2.6e-05
2.6e-05
2.6e-05
2.6e-05
2.6e-05
2.6e-05
2.6e-05
2.6e-05
2.6e-05
2.6e-05
2.6e-05
2.6e-05
2.6e-05
2.60001e-05
2.60001e-05
2.60002e-05
2.60004e-05
2.60006e-05
2.60013e-05
2.60021e-05
2.60037e-05
2.60053e-05
2.60075e-05
2.60102e-05
2.60133e-05
2.60168e-05
2.60209e-05
2.60254e-05
2.60302e-05
2.60355e-05
2.60412e-05
2.60472e-05
2.60533e-05
2.60596e-05
2.60658e-05
2.60718e-05
2.60775e-05
2.60828e-05
2.60873e-05
2.6091e-05
2.60926e-05
2.60909e-05
2.6e-05
2.6e-05
2.6e-05
2.6e-05
2.6e-05
2.6e-05
2.6e-05
2.6e-05
2.6e-05
2.6e-05
2.6e-05
2.6e-05
2.6e-05
2.6e-05
2.6e-05
2.6e-05
2.6e-05
2.6e-05
2.6e-05
2.60001e-05
2.60001e-05
2.60002e-05
2.60004e-05
2.60006e-05
2.60014e-05
2.60023e-05
2.6004e-05
2.60058e-05
2.60083e-05
2.60113e-05
2.60146e-05
2.60184e-05
2.60227e-05
2.60275e-05
2.60326e-05
2.60382e-05
2.60441e-05
2.60503e-05
2.60566e-05
2.60629e-05
2.60691e-05
2.60751e-05
2.60807e-05
2.60857e-05
2.60903e-05
2.60937e-05
2.60959e-05
2.60943e-05
2.6e-05
2.6e-05
2.6e-05
2.6e-05
2.6e-05
2.6e-05
2.6e-05
2.6e-05
2.6e-05
2.6e-05
2.6e-05
2.6e-05
2.6e-05
2.6e-05
2.6e-05
2.6e-05
2.6e-05
2.6e-05
2.6e-05
2.60001e-05
2.60001e-05
2.60002e-05
2.60004e-05
2.60007e-05
2.60014e-05
2.60024e-05
2.60041e-05
2.6006e-05
2.60085e-05
2.60117e-05
2.60151e-05
2.60192e-05
2.60237e-05
2.60288e-05
2.60342e-05
2.604e-05
2.60463e-05
2.60527e-05
2.60592e-05
2.60657e-05
2.60719e-05
2.60778e-05
2.60832e-05
2.60882e-05
2.60923e-05
2.60957e-05
2.60974e-05
2.60962e-05
2.6e-05
2.6e-05
2.6e-05
2.6e-05
2.6e-05
2.6e-05
2.6e-05
2.6e-05
2.6e-05
2.6e-05
2.6e-05
2.6e-05
2.6e-05
2.6e-05
2.6e-05
2.6e-05
2.6e-05
2.6e-05
2.6e-05
2.60001e-05
2.60001e-05
2.60002e-05
2.60005e-05
2.60008e-05
2.60016e-05
2.60026e-05
2.60045e-05
2.60066e-05
2.60093e-05
2.60126e-05
2.60163e-05
2.60206e-05
2.60254e-05
2.60307e-05
2.60363e-05
2.60424e-05
2.60487e-05
2.60552e-05
2.60617e-05
2.6068e-05
2.6074e-05
2.60796e-05
2.60846e-05
2.60891e-05
2.6093e-05
2.60959e-05
2.60978e-05
2.60965e-05
2.6e-05
2.6e-05
2.6e-05
2.6e-05
2.6e-05
2.6e-05
2.6e-05
2.6e-05
2.6e-05
2.6e-05
2.6e-05
2.6e-05
2.6e-05
2.6e-05
2.6e-05
2.6e-05
2.6e-05
2.6e-05
2.6e-05
2.60001e-05
2.60001e-05
2.60002e-05
2.60005e-05
2.60008e-05
2.60016e-05
2.60027e-05
2.60047e-05
2.60068e-05
2.60097e-05
2.60132e-05
2.60171e-05
2.60216e-05
2.60266e-05
2.60322e-05
2.6038e-05
2.60443e-05
2.60508e-05
2.60574e-05
2.60638e-05
2.607e-05
2.60758e-05
2.60809e-05
2.60856e-05
2.60896e-05
2.60932e-05
2.60955e-05
2.60977e-05
2.60969e-05
2.6e-05
2.6e-05
2.6e-05
2.6e-05
2.6e-05
2.6e-05
2.6e-05
2.6e-05
2.6e-05
2.6e-05
2.6e-05
2.6e-05
2.6e-05
2.6e-05
2.6e-05
2.6e-05
2.6e-05
2.6e-05
2.6e-05
2.60001e-05
2.60002e-05
2.60003e-05
2.60005e-05
2.60009e-05
2.60017e-05
2.6003e-05
2.6005e-05
2.60073e-05
2.60104e-05
2.60141e-05
2.60182e-05
2.6023e-05
2.60282e-05
2.6034e-05
2.604e-05
2.60464e-05
2.60529e-05
2.60594e-05
2.60657e-05
2.60716e-05
2.60769e-05
2.60816e-05
2.60858e-05
2.60895e-05
2.60922e-05
2.60948e-05
2.60963e-05
2.60965e-05
2.6e-05
2.6e-05
2.6e-05
2.6e-05
2.6e-05
2.6e-05
2.6e-05
2.6e-05
2.6e-05
2.6e-05
2.6e-05
2.6e-05
2.6e-05
2.6e-05
2.6e-05
2.6e-05
2.6e-05
2.6e-05
2.60001e-05
2.60001e-05
2.60002e-05
2.60003e-05
2.60006e-05
2.6001e-05
2.60018e-05
2.60031e-05
2.60052e-05
2.60077e-05
2.6011e-05
2.60149e-05
2.60192e-05
2.60241e-05
2.60295e-05
2.60356e-05
2.60417e-05
2.60482e-05
2.60547e-05
2.60611e-05
2.60672e-05
2.60727e-05
2.60775e-05
2.60818e-05
2.60854e-05
2.60886e-05
2.60909e-05
2.60929e-05
2.60945e-05
2.60963e-05
2.6e-05
2.6e-05
2.6e-05
2.6e-05
2.6e-05
2.6e-05
2.6e-05
2.6e-05
2.6e-05
2.6e-05
2.6e-05
2.6e-05
2.6e-05
2.6e-05
2.6e-05
2.6e-05
2.6e-05
2.6e-05
2.60001e-05
2.60001e-05
2.60002e-05
2.60003e-05
2.60006e-05
2.6001e-05
2.60019e-05
2.60034e-05
2.60056e-05
2.60082e-05
2.60117e-05
2.60157e-05
2.60203e-05
2.60254e-05
2.6031e-05
2.60372e-05
2.60435e-05
2.605e-05
2.60564e-05
2.60626e-05
2.60683e-05
2.60733e-05
2.60776e-05
2.60814e-05
2.60847e-05
2.60869e-05
2.60892e-05
2.60905e-05
2.6093e-05
2.60957e-05
2.6e-05
2.6e-05
2.6e-05
2.6e-05
2.6e-05
2.6e-05
2.6e-05
2.6e-05
2.6e-05
2.6e-05
2.6e-05
2.6e-05
2.6e-05
2.6e-05
2.6e-05
2.6e-05
2.6e-05
2.6e-05
2.60001e-05
2.60001e-05
2.60002e-05
2.60003e-05
2.60006e-05
2.60011e-05
2.60021e-05
2.60036e-05
2.60059e-05
2.60087e-05
2.60123e-05
2.60165e-05
2.60213e-05
2.60266e-05
2.60324e-05
2.60387e-05
2.60451e-05
2.60515e-05
2.60578e-05
2.60637e-05
2.6069e-05
2.60735e-05
2.60774e-05
2.60805e-05
2.60832e-05
2.6085e-05
2.60866e-05
2.6088e-05
2.60904e-05
2.6095e-05
2.6e-05
2.6e-05
2.6e-05
2.6e-05
2.6e-05
2.6e-05
2.6e-05
2.6e-05
2.6e-05
2.6e-05
2.6e-05
2.6e-05
2.6e-05
2.6e-05
2.6e-05
2.6e-05
2.6e-05
2.6e-05
2.60001e-05
2.60001e-05
2.60002e-05
2.60004e-05
2.60007e-05
2.60012e-05
2.60022e-05
2.60038e-05
2.60062e-05
2.60092e-05
2.6013e-05
2.60174e-05
2.60224e-05
2.60279e-05
2.60338e-05
2.60402e-05
2.60466e-05
2.60529e-05
2.60589e-05
2.60645e-05
2.60693e-05
2.60733e-05
2.60766e-05
2.60793e-05
2.6081e-05
2.60827e-05
2.60834e-05
2.60851e-05
2.60875e-05
2.60941e-05
2.6e-05
2.6e-05
2.6e-05
2.6e-05
2.6e-05
2.6e-05
2.6e-05
2.6e-05
2.6e-05
2.6e-05
2.6e-05
2.6e-05
2.6e-05
2.6e-05
2.6e-05
2.6e-05
2.6e-05
2.6e-05
2.60001e-05
2.60001e-05
2.60002e-05
2.60004e-05
2.60007e-05
2.60013e-05
2.60023e-05
2.6004e-05
2.60066e-05
2.60097e-05
2.60136e-05
2.60183e-05
2.60234e-05
2.60291e-05
2.6035e-05
2.60415e-05
2.60478e-05
2.6054e-05
2.60598e-05
2.60649e-05
2.60692e-05
2.60727e-05
2.60753e-05
2.60776e-05
2.60787e-05
2.60795e-05
2.60803e-05
2.60811e-05
2.60842e-05
2.60931e-05
2.6e-05
2.6e-05
2.6e-05
2.6e-05
2.6e-05
2.6e-05
2.6e-05
2.6e-05
2.6e-05
2.6e-05
2.6e-05
2.6e-05
2.6e-05
2.6e-05
2.6e-05
2.6e-05
2.6e-05
2.6e-05
2.60001e-05
2.60001e-05
2.60003e-05
2.60004e-05
2.60008e-05
2.60014e-05
2.60025e-05
2.60043e-05
2.60069e-05
2.60102e-05
2.60144e-05
2.60191e-05
2.60244e-05
2.60303e-05
2.60363e-05
2.60427e-05
2.6049e-05
2.60549e-05
2.60603e-05
2.6065e-05
2.60687e-05
2.60715e-05
2.6074e-05
2.60751e-05
2.60763e-05
2.60758e-05
2.6077e-05
2.60766e-05
2.60811e-05
2.60921e-05
2.6e-05
2.6e-05
2.6e-05
2.6e-05
2.6e-05
2.6e-05
2.6e-05
2.6e-05
2.6e-05
2.6e-05
2.6e-05
2.6e-05
2.6e-05
2.6e-05
2.6e-05
2.6e-05
2.6e-05
2.6e-05
2.60001e-05
2.60002e-05
2.60003e-05
2.60005e-05
2.60008e-05
2.60014e-05
2.60026e-05
2.60045e-05
2.60073e-05
2.60107e-05
2.6015e-05
2.602e-05
2.60254e-05
2.60313e-05
2.60374e-05
2.60438e-05
2.60499e-05
2.60555e-05
2.60605e-05
2.60647e-05
2.60679e-05
2.60703e-05
2.60719e-05
2.60727e-05
2.60728e-05
2.60723e-05
2.60725e-05
2.60731e-05
2.60774e-05
2.6091e-05
2.6e-05
2.6e-05
2.6e-05
2.6e-05
2.6e-05
2.6e-05
2.6e-05
2.6e-05
2.6e-05
2.6e-05
2.6e-05
2.6e-05
2.6e-05
2.6e-05
2.6e-05
2.6e-05
2.6e-05
2.6e-05
2.60001e-05
2.60002e-05
2.60003e-05
2.60005e-05
2.60009e-05
2.60016e-05
2.60028e-05
2.60048e-05
2.60076e-05
2.60112e-05
2.60157e-05
2.60208e-05
2.60263e-05
2.60324e-05
2.60383e-05
2.60446e-05
2.60504e-05
2.60558e-05
2.60604e-05
2.6064e-05
2.60667e-05
2.60685e-05
2.60697e-05
2.60697e-05
2.60694e-05
2.60682e-05
2.60683e-05
2.60688e-05
2.60738e-05
2.60899e-05
2.6e-05
2.6e-05
2.6e-05
2.6e-05
2.6e-05
2.6e-05
2.6e-05
2.6e-05
2.6e-05
2.6e-05
2.6e-05
2.6e-05
2.6e-05
2.6e-05
2.6e-05
2.6e-05
2.6e-05
2.60001e-05
2.60001e-05
2.60002e-05
2.60003e-05
2.60006e-05
2.60009e-05
2.60016e-05
2.60029e-05
2.6005e-05
2.6008e-05
2.60117e-05
2.60164e-05
2.60216e-05
2.60271e-05
2.60333e-05
2.60392e-05
2.60453e-05
2.60509e-05
2.60558e-05
2.606e-05
2.60631e-05
2.60653e-05
2.60664e-05
2.60672e-05
2.60665e-05
2.60654e-05
2.60642e-05
2.60633e-05
2.6065e-05
2.60698e-05
2.60888e-05
2.6e-05
2.6e-05
2.6e-05
2.6e-05
2.6e-05
2.6e-05
2.6e-05
2.6e-05
2.6e-05
2.6e-05
2.6e-05
2.6e-05
2.6e-05
2.6e-05
2.6e-05
2.6e-05
2.6e-05
2.60001e-05
2.60001e-05
2.60002e-05
2.60003e-05
2.60006e-05
2.6001e-05
2.60017e-05
2.60031e-05
2.60053e-05
2.60084e-05
2.60122e-05
2.6017e-05
2.60222e-05
2.60279e-05
2.6034e-05
2.60398e-05
2.60457e-05
2.60509e-05
2.60555e-05
2.60592e-05
2.60618e-05
2.60633e-05
2.60644e-05
2.60638e-05
2.60634e-05
2.60607e-05
2.60602e-05
2.60579e-05
2.60611e-05
2.60651e-05
2.60875e-05
2.6e-05
2.6e-05
2.6e-05
2.6e-05
2.6e-05
2.6e-05
2.6e-05
2.6e-05
2.6e-05
2.6e-05
2.6e-05
2.6e-05
2.6e-05
2.6e-05
2.6e-05
2.6e-05
2.6e-05
2.60001e-05
2.60001e-05
2.60002e-05
2.60004e-05
2.60006e-05
2.60011e-05
2.60018e-05
2.60032e-05
2.60055e-05
2.60088e-05
2.60127e-05
2.60176e-05
2.60229e-05
2.60286e-05
2.60347e-05
2.60404e-05
2.60459e-05
2.60508e-05
2.6055e-05
2.60582e-05
2.60602e-05
2.60614e-05
2.60616e-05
2.60609e-05
2.60592e-05
2.60568e-05
2.6055e-05
2.60537e-05
2.60554e-05
2.60606e-05
2.60861e-05
2.6e-05
2.6e-05
2.6e-05
2.6e-05
2.6e-05
2.6e-05
2.6e-05
2.6e-05
2.6e-05
2.6e-05
2.6e-05
2.6e-05
2.6e-05
2.6e-05
2.6e-05
2.6e-05
2.6e-05
2.60001e-05
2.60001e-05
2.60002e-05
2.60004e-05
2.60007e-05
2.60011e-05
2.60019e-05
2.60034e-05
2.60058e-05
2.60091e-05
2.60132e-05
2.60181e-05
2.60234e-05
2.60291e-05
2.60351e-05
2.60406e-05
2.60458e-05
2.60503e-05
2.6054e-05
2.60567e-05
2.60583e-05
2.6059e-05
2.60589e-05
2.60574e-05
2.60554e-05
2.60523e-05
2.60504e-05
2.60493e-05
2.60507e-05
2.60567e-05
2.60853e-05
2.6e-05
2.6e-05
2.6e-05
2.6e-05
2.6e-05
2.6e-05
2.6e-05
2.6e-05
2.6e-05
2.6e-05
2.6e-05
2.6e-05
2.6e-05
2.6e-05
2.6e-05
2.6e-05
2.6e-05
2.60001e-05
2.60001e-05
2.60002e-05
2.60004e-05
2.60007e-05
2.60012e-05
2.6002e-05
2.60035e-05
2.6006e-05
2.60094e-05
2.60136e-05
2.60186e-05
2.60239e-05
2.60296e-05
2.60354e-05
2.60407e-05
2.60456e-05
2.60497e-05
2.6053e-05
2.60551e-05
2.60563e-05
2.60563e-05
2.60559e-05
2.60538e-05
2.6051e-05
2.60484e-05
2.60454e-05
2.60462e-05
2.60447e-05
2.60525e-05
2.60837e-05
2.6e-05
2.6e-05
2.6e-05
2.6e-05
2.6e-05
2.6e-05
2.6e-05
2.6e-05
2.6e-05
2.6e-05
2.6e-05
2.6e-05
2.6e-05
2.6e-05
2.6e-05
2.6e-05
2.6e-05
2.60001e-05
2.60001e-05
2.60002e-05
2.60004e-05
2.60008e-05
2.60012e-05
2.60021e-05
2.60036e-05
2.60062e-05
2.60097e-05
2.60139e-05
2.6019e-05
2.60242e-05
2.60298e-05
2.60354e-05
2.60404e-05
2.60449e-05
2.60486e-05
2.60515e-05
2.60532e-05
2.60537e-05
2.6054e-05
2.6052e-05
2.60507e-05
2.6046e-05
2.60451e-05
2.60401e-05
2.60438e-05
2.60385e-05
2.60505e-05
2.60827e-05
2.6e-05
2.6e-05
2.6e-05
2.6e-05
2.6e-05
2.6e-05
2.6e-05
2.6e-05
2.6e-05
2.6e-05
2.6e-05
2.6e-05
2.6e-05
2.6e-05
2.6e-05
2.6e-05
2.6e-05
2.60001e-05
2.60002e-05
2.60003e-05
2.60005e-05
2.60008e-05
2.60013e-05
2.60022e-05
2.60038e-05
2.60064e-05
2.601e-05
2.60143e-05
2.60193e-05
2.60245e-05
2.603e-05
2.60354e-05
2.60401e-05
2.60442e-05
2.60475e-05
2.60499e-05
2.6051e-05
2.60514e-05
2.60506e-05
2.60488e-05
2.6046e-05
2.60423e-05
2.60404e-05
2.60374e-05
2.60386e-05
2.60369e-05
2.6048e-05
2.60812e-05
2.6e-05
2.6e-05
2.6e-05
2.6e-05
2.6e-05
2.6e-05
2.6e-05
2.6e-05
2.6e-05
2.6e-05
2.6e-05
2.6e-05
2.6e-05
2.6e-05
2.6e-05
2.6e-05
2.6e-05
2.60001e-05
2.60002e-05
2.60003e-05
2.60005e-05
2.60008e-05
2.60013e-05
2.60023e-05
2.60039e-05
2.60066e-05
2.60102e-05
2.60145e-05
2.60194e-05
2.60245e-05
2.60298e-05
2.60349e-05
2.60392e-05
2.6043e-05
2.60459e-05
2.60477e-05
2.60486e-05
2.60483e-05
2.60475e-05
2.60448e-05
2.60421e-05
2.6038e-05
2.60368e-05
2.60331e-05
2.60336e-05
2.60318e-05
2.60464e-05
2.60801e-05
2.6e-05
2.6e-05
2.6e-05
2.6e-05
2.6e-05
2.6e-05
2.6e-05
2.6e-05
2.6e-05
2.6e-05
2.6e-05
2.6e-05
2.6e-05
2.6e-05
2.6e-05
2.6e-05
2.6e-05
2.60001e-05
2.60002e-05
2.60003e-05
2.60005e-05
2.60009e-05
2.60014e-05
2.60023e-05
2.6004e-05
2.60067e-05
2.60104e-05
2.60147e-05
2.60196e-05
2.60245e-05
2.60297e-05
2.60344e-05
2.60385e-05
2.60417e-05
2.60442e-05
2.60456e-05
2.6046e-05
2.60453e-05
2.6044e-05
2.60409e-05
2.60375e-05
2.60349e-05
2.60319e-05
2.60304e-05
2.60294e-05
2.60348e-05
2.60437e-05
2.60799e-05
2.6e-05
2.6e-05
2.6e-05
2.6e-05
2.6e-05
2.6e-05
2.6e-05
2.6e-05
2.6e-05
2.6e-05
2.6e-05
2.6e-05
2.6e-05
2.6e-05
2.6e-05
2.6e-05
2.6e-05
2.60001e-05
2.60002e-05
2.60003e-05
2.60005e-05
2.60009e-05
2.60014e-05
2.60024e-05
2.6004e-05
2.60068e-05
2.60104e-05
2.60147e-05
2.60195e-05
2.60241e-05
2.6029e-05
2.60334e-05
2.60371e-05
2.604e-05
2.6042e-05
2.60431e-05
2.60429e-05
2.60425e-05
2.60398e-05
2.60377e-05
2.6033e-05
2.60324e-05
2.60269e-05
2.60287e-05
2.60241e-05
2.60309e-05
2.60363e-05
2.60757e-05
2.6e-05
2.6e-05
2.6e-05
2.6e-05
2.6e-05
2.6e-05
2.6e-05
2.6e-05
2.6e-05
2.6e-05
2.6e-05
2.6e-05
2.6e-05
2.6e-05
2.6e-05
2.6e-05
2.6e-05
2.60001e-05
2.60002e-05
2.60003e-05
2.60006e-05
2.60009e-05
2.60015e-05
2.60024e-05
2.60041e-05
2.60068e-05
2.60105e-05
2.60147e-05
2.60194e-05
2.60239e-05
2.60285e-05
2.60325e-05
2.60358e-05
2.60383e-05
2.60399e-05
2.60403e-05
2.60401e-05
2.60387e-05
2.60365e-05
2.60331e-05
2.60305e-05
2.60277e-05
2.60259e-05
2.6023e-05
2.60232e-05
2.6022e-05
2.60158e-05
2.60686e-05
2.6e-05
2.6e-05
2.6e-05
2.6e-05
2.6e-05
2.6e-05
2.6e-05
2.6e-05
2.6e-05
2.6e-05
2.6e-05
2.6e-05
2.6e-05
2.6e-05
2.6e-05
2.6e-05
2.6e-05
2.60001e-05
2.60002e-05
2.60003e-05
2.60006e-05
2.6001e-05
2.60015e-05
2.60025e-05
2.60041e-05
2.60068e-05
2.60103e-05
2.60145e-05
2.60189e-05
2.60231e-05
2.60274e-05
2.6031e-05
2.60339e-05
2.60361e-05
2.60372e-05
2.60375e-05
2.60367e-05
2.60354e-05
2.60325e-05
2.60298e-05
2.6027e-05
2.60247e-05
2.60219e-05
2.60237e-05
2.60243e-05
2.60265e-05
2.60435e-05
2.60773e-05
2.6e-05
2.6e-05
2.6e-05
2.6e-05
2.6e-05
2.6e-05
2.6e-05
2.6e-05
2.6e-05
2.6e-05
2.6e-05
2.6e-05
2.6e-05
2.6e-05
2.6e-05
2.6e-05
2.6e-05
2.60001e-05
2.60002e-05
2.60004e-05
2.60006e-05
2.6001e-05
2.60015e-05
2.60025e-05
2.60041e-05
2.60067e-05
2.60102e-05
2.60143e-05
2.60185e-05
2.60225e-05
2.60264e-05
2.60297e-05
2.60322e-05
2.60339e-05
2.60346e-05
2.60345e-05
2.60334e-05
2.60317e-05
2.60288e-05
2.60259e-05
2.60238e-05
2.60209e-05
2.60212e-05
2.60196e-05
2.60215e-05
2.60137e-05
2.59922e-05
2.60595e-05
2.6e-05
2.6e-05
2.6e-05
2.6e-05
2.6e-05
2.6e-05
2.6e-05
2.6e-05
2.6e-05
2.6e-05
2.6e-05
2.6e-05
2.6e-05
2.6e-05
2.6e-05
2.6e-05
2.6e-05
2.60001e-05
2.60002e-05
2.60004e-05
2.60006e-05
2.6001e-05
2.60016e-05
2.60025e-05
2.60041e-05
2.60066e-05
2.60098e-05
2.60136e-05
2.60177e-05
2.60213e-05
2.60249e-05
2.60277e-05
2.60299e-05
2.60313e-05
2.60317e-05
2.6031e-05
2.60301e-05
2.60276e-05
2.60254e-05
2.60223e-05
2.60203e-05
2.60182e-05
2.60199e-05
2.60218e-05
2.60247e-05
2.60256e-05
2.60461e-05
2.60752e-05
2.6e-05
2.6e-05
2.6e-05
2.6e-05
2.6e-05
2.6e-05
2.6e-05
2.6e-05
2.6e-05
2.6e-05
2.6e-05
2.6e-05
2.6e-05
2.6e-05
2.6e-05
2.6e-05
2.6e-05
2.60001e-05
2.60002e-05
2.60004e-05
2.60006e-05
2.6001e-05
2.60016e-05
2.60025e-05
2.60041e-05
2.60065e-05
2.60095e-05
2.60131e-05
2.60169e-05
2.60203e-05
2.60235e-05
2.6026e-05
2.60277e-05
2.60287e-05
2.60286e-05
2.6028e-05
2.60263e-05
2.6024e-05
2.60215e-05
2.60191e-05
2.60175e-05
2.60171e-05
2.60201e-05
2.60209e-05
2.60256e-05
2.60158e-05
2.60115e-05
2.60615e-05
2.6e-05
2.6e-05
2.6e-05
2.6e-05
2.6e-05
2.6e-05
2.6e-05
2.6e-05
2.6e-05
2.6e-05
2.6e-05
2.6e-05
2.6e-05
2.6e-05
2.6e-05
2.6e-05
2.6e-05
2.60001e-05
2.60002e-05
2.60004e-05
2.60006e-05
2.6001e-05
2.60016e-05
2.60025e-05
2.60039e-05
2.60062e-05
2.6009e-05
2.60122e-05
2.60156e-05
2.60187e-05
2.60215e-05
2.60236e-05
2.6025e-05
2.60257e-05
2.60254e-05
2.60243e-05
2.60227e-05
2.60201e-05
2.60183e-05
2.60155e-05
2.60152e-05
2.60173e-05
2.60209e-05
2.60285e-05
2.60349e-05
2.60235e-05
2.60344e-05
2.60653e-05
2.6e-05
2.6e-05
2.6e-05
2.6e-05
2.6e-05
2.6e-05
2.6e-05
2.6e-05
2.6e-05
2.6e-05
2.6e-05
2.6e-05
2.6e-05
2.6e-05
2.6e-05
2.6e-05
2.6e-05
2.60001e-05
2.60002e-05
2.60004e-05
2.60006e-05
2.6001e-05
2.60016e-05
2.60024e-05
2.60039e-05
2.6006e-05
2.60086e-05
2.60114e-05
2.60145e-05
2.60172e-05
2.60196e-05
2.60214e-05
2.60225e-05
2.60228e-05
2.60223e-05
2.60208e-05
2.6019e-05
2.60165e-05
2.60147e-05
2.60134e-05
2.6014e-05
2.60196e-05
2.60255e-05
2.60385e-05
2.60373e-05
2.60366e-05
2.60318e-05
2.60633e-05
2.6e-05
2.6e-05
2.6e-05
2.6e-05
2.6e-05
2.6e-05
2.6e-05
2.6e-05
2.6e-05
2.6e-05
2.6e-05
2.6e-05
2.6e-05
2.6e-05
2.6e-05
2.6e-05
2.6e-05
2.60001e-05
2.60002e-05
2.60004e-05
2.60006e-05
2.6001e-05
2.60016e-05
2.60023e-05
2.60036e-05
2.60056e-05
2.60079e-05
2.60104e-05
2.6013e-05
2.60151e-05
2.60172e-05
2.60186e-05
2.60195e-05
2.60196e-05
2.60187e-05
2.60176e-05
2.60148e-05
2.60136e-05
2.60107e-05
2.60118e-05
2.60133e-05
2.60262e-05
2.60314e-05
2.60487e-05
2.60426e-05
2.60479e-05
2.60389e-05
2.60598e-05
2.6e-05
2.6e-05
2.6e-05
2.6e-05
2.6e-05
2.6e-05
2.6e-05
2.6e-05
2.6e-05
2.6e-05
2.6e-05
2.6e-05
2.6e-05
2.6e-05
2.6e-05
2.6e-05
2.6e-05
2.60001e-05
2.60002e-05
2.60004e-05
2.60006e-05
2.6001e-05
2.60015e-05
2.60023e-05
2.60035e-05
2.60053e-05
2.60074e-05
2.60096e-05
2.60118e-05
2.60136e-05
2.6015e-05
2.60161e-05
2.60167e-05
2.60165e-05
2.60157e-05
2.60137e-05
2.60117e-05
2.60099e-05
2.60087e-05
2.60099e-05
2.6016e-05
2.60296e-05
2.60404e-05
2.6049e-05
2.60448e-05
2.60503e-05
2.60256e-05
2.60524e-05
2.6e-05
2.6e-05
2.6e-05
2.6e-05
2.6e-05
2.6e-05
2.6e-05
2.6e-05
2.6e-05
2.6e-05
2.6e-05
2.6e-05
2.6e-05
2.6e-05
2.6e-05
2.6e-05
2.6e-05
2.60001e-05
2.60002e-05
2.60004e-05
2.60006e-05
2.6001e-05
2.60015e-05
2.60021e-05
2.60032e-05
2.60048e-05
2.60066e-05
2.60083e-05
2.60102e-05
2.60116e-05
2.60126e-05
2.60133e-05
2.60136e-05
2.60134e-05
2.60121e-05
2.60106e-05
2.60084e-05
2.60072e-05
2.60073e-05
2.60123e-05
2.60237e-05
2.60359e-05
2.60457e-05
2.60537e-05
2.60647e-05
2.60472e-05
2.60804e-05
2.60657e-05
2.6e-05
2.6e-05
2.6e-05
2.6e-05
2.6e-05
2.6e-05
2.6e-05
2.6e-05
2.6e-05
2.6e-05
2.6e-05
2.6e-05
2.6e-05
2.6e-05
2.6e-05
2.6e-05
2.6e-05
2.60001e-05
2.60002e-05
2.60004e-05
2.60006e-05
2.60009e-05
2.60014e-05
2.6002e-05
2.60031e-05
2.60045e-05
2.6006e-05
2.60074e-05
2.60089e-05
2.60101e-05
2.60108e-05
2.60111e-05
2.6011e-05
2.60104e-05
2.60093e-05
2.60073e-05
2.60061e-05
2.60056e-05
2.60084e-05
2.60175e-05
2.60285e-05
2.60383e-05
2.60533e-05
2.60596e-05
2.6049e-05
2.60671e-05
2.60003e-05
2.60417e-05
2.6e-05
2.6e-05
2.6e-05
2.6e-05
2.6e-05
2.6e-05
2.6e-05
2.6e-05
2.6e-05
2.6e-05
2.6e-05
2.6e-05
2.6e-05
2.6e-05
2.6e-05
2.6e-05
2.6e-05
2.60001e-05
2.60002e-05
2.60003e-05
2.60006e-05
2.60009e-05
2.60013e-05
2.60019e-05
2.60027e-05
2.60039e-05
2.60051e-05
2.60061e-05
2.60072e-05
2.60081e-05
2.60084e-05
2.60085e-05
2.60083e-05
2.60077e-05
2.60063e-05
2.6005e-05
2.60046e-05
2.60062e-05
2.60136e-05
2.60222e-05
2.60348e-05
2.60455e-05
2.60604e-05
2.60605e-05
2.6084e-05
2.60418e-05
2.61012e-05
2.60695e-05
2.6e-05
2.6e-05
2.6e-05
2.6e-05
2.6e-05
2.6e-05
2.6e-05
2.6e-05
2.6e-05
2.6e-05
2.6e-05
2.6e-05
2.6e-05
2.6e-05
2.6e-05
2.6e-05
2.6e-05
2.60001e-05
2.60002e-05
2.60004e-05
2.60006e-05
2.60008e-05
2.60012e-05
2.60017e-05
2.60025e-05
2.60035e-05
2.60045e-05
2.60052e-05
2.6006e-05
2.60065e-05
2.60066e-05
2.60064e-05
2.60061e-05
2.60052e-05
2.60043e-05
2.60033e-05
2.60046e-05
2.60101e-05
2.60185e-05
2.60266e-05
2.60408e-05
2.60504e-05
2.60684e-05
2.60758e-05
2.60651e-05
2.60874e-05
2.59984e-05
2.60367e-05
2.6e-05
2.6e-05
2.6e-05
2.6e-05
2.6e-05
2.6e-05
2.6e-05
2.6e-05
2.6e-05
2.6e-05
2.6e-05
2.6e-05
2.6e-05
2.6e-05
2.6e-05
2.6e-05
2.6e-05
2.60001e-05
2.60002e-05
2.60003e-05
2.60005e-05
2.60008e-05
2.60011e-05
2.60015e-05
2.60021e-05
2.60029e-05
2.60035e-05
2.6004e-05
2.60043e-05
2.60046e-05
2.60045e-05
2.60042e-05
2.60038e-05
2.60032e-05
2.60026e-05
2.60033e-05
2.60081e-05
2.60144e-05
2.60224e-05
2.60321e-05
2.60453e-05
2.60571e-05
2.60737e-05
2.60723e-05
2.60955e-05
2.6043e-05
2.60961e-05
2.60678e-05
2.6e-05
2.6e-05
2.6e-05
2.6e-05
2.6e-05
2.6e-05
2.6e-05
2.6e-05
2.6e-05
2.6e-05
2.6e-05
2.6e-05
2.6e-05
2.6e-05
2.6e-05
2.6e-05
2.6e-05
2.60001e-05
2.60002e-05
2.60003e-05
2.60005e-05
2.60007e-05
2.6001e-05
2.60014e-05
2.60019e-05
2.60025e-05
2.60029e-05
2.60031e-05
2.60032e-05
2.60033e-05
2.6003e-05
2.60026e-05
2.60023e-05
2.60019e-05
2.60024e-05
2.60057e-05
2.60122e-05
2.6018e-05
2.60268e-05
2.60356e-05
2.60506e-05
2.60609e-05
2.60799e-05
2.60866e-05
2.60784e-05
2.60989e-05
2.59976e-05
2.60421e-05
2.6e-05
2.6e-05
2.6e-05
2.6e-05
2.6e-05
2.6e-05
2.6e-05
2.6e-05
2.6e-05
2.6e-05
2.6e-05
2.6e-05
2.6e-05
2.6e-05
2.6e-05
2.6e-05
2.6e-05
2.60001e-05
2.60002e-05
2.60003e-05
2.60004e-05
2.60007e-05
2.60009e-05
2.60011e-05
2.60015e-05
2.60018e-05
2.6002e-05
2.60019e-05
2.60018e-05
2.60017e-05
2.60015e-05
2.60014e-05
2.60015e-05
2.60018e-05
2.60041e-05
2.60095e-05
2.6015e-05
2.60216e-05
2.603e-05
2.60403e-05
2.60532e-05
2.60665e-05
2.60811e-05
2.60837e-05
2.60963e-05
2.60481e-05
2.60691e-05
2.60677e-05
2.6e-05
2.6e-05
2.6e-05
2.6e-05
2.6e-05
2.6e-05
2.6e-05
2.6e-05
2.6e-05
2.6e-05
2.6e-05
2.6e-05
2.6e-05
2.6e-05
2.6e-05
2.6e-05
2.6e-05
2.60001e-05
2.60001e-05
2.60003e-05
2.60004e-05
2.60006e-05
2.60008e-05
2.6001e-05
2.60013e-05
2.60015e-05
2.60014e-05
2.60013e-05
2.60012e-05
2.60012e-05
2.60011e-05
2.60017e-05
2.60027e-05
2.60042e-05
2.6007e-05
2.60113e-05
2.60184e-05
2.60245e-05
2.60342e-05
2.60428e-05
2.60588e-05
2.60691e-05
2.60884e-05
2.60922e-05
2.60962e-05
2.60885e-05
2.60309e-05
2.60477e-05
2.6e-05
2.6e-05
2.6e-05
2.6e-05
2.6e-05
2.6e-05
2.6e-05
2.6e-05
2.6e-05
2.6e-05
2.6e-05
2.6e-05
2.6e-05
2.6e-05
2.6e-05
2.6e-05
2.6e-05
2.60001e-05
2.60001e-05
2.60002e-05
2.60003e-05
2.60005e-05
2.60007e-05
2.60007e-05
2.60008e-05
2.60009e-05
2.60007e-05
2.60005e-05
2.60006e-05
2.6001e-05
2.60017e-05
2.6003e-05
2.60047e-05
2.60061e-05
2.60087e-05
2.6014e-05
2.6021e-05
2.60274e-05
2.6037e-05
2.60458e-05
2.60614e-05
2.60714e-05
2.60909e-05
2.60903e-05
2.61025e-05
2.60735e-05
2.60482e-05
2.60532e-05
2.6e-05
2.6e-05
2.6e-05
2.6e-05
2.6e-05
2.6e-05
2.6e-05
2.6e-05
2.6e-05
2.6e-05
2.6e-05
2.6e-05
2.6e-05
2.6e-05
2.6e-05
2.6e-05
2.6e-05
2.60001e-05
2.60001e-05
2.60002e-05
2.60003e-05
2.60004e-05
2.60005e-05
2.60006e-05
2.60007e-05
2.60006e-05
2.60005e-05
2.60007e-05
2.60013e-05
2.60021e-05
2.60031e-05
2.60045e-05
2.60059e-05
2.60074e-05
2.60104e-05
2.60158e-05
2.60236e-05
2.60296e-05
2.60401e-05
2.60475e-05
2.60651e-05
2.60717e-05
2.60962e-05
2.60887e-05
2.61087e-05
2.60783e-05
2.60414e-05
2.60472e-05
2.6e-05
2.6e-05
2.6e-05
2.6e-05
2.6e-05
2.6e-05
2.6e-05
2.6e-05
2.6e-05
2.6e-05
2.6e-05
2.6e-05
2.6e-05
2.6e-05
2.6e-05
2.6e-05
2.6e-05
2.6e-05
2.60001e-05
2.60001e-05
2.60002e-05
2.60003e-05
2.60004e-05
2.60003e-05
2.60003e-05
2.60002e-05
2.60003e-05
2.6001e-05
2.60018e-05
2.60027e-05
2.60036e-05
2.6005e-05
2.60068e-05
2.60084e-05
2.60117e-05
2.60175e-05
2.60256e-05
2.60315e-05
2.60423e-05
2.60491e-05
2.60676e-05
2.60721e-05
2.61003e-05
2.60852e-05
2.61132e-05
2.60677e-05
2.60337e-05
2.60528e-05
2.6e-05
2.6e-05
2.6e-05
2.6e-05
2.6e-05
2.6e-05
2.6e-05
2.6e-05
2.6e-05
2.6e-05
2.6e-05
2.6e-05
2.6e-05
2.6e-05
2.6e-05
2.6e-05
2.6e-05
2.6e-05
2.60001e-05
2.60001e-05
2.60002e-05
2.60002e-05
2.60003e-05
2.60002e-05
2.60003e-05
2.60004e-05
2.60009e-05
2.60018e-05
2.60027e-05
2.60035e-05
2.60044e-05
2.60057e-05
2.60073e-05
2.60092e-05
2.60126e-05
2.60188e-05
2.60271e-05
2.60333e-05
2.60435e-05
2.60517e-05
2.60678e-05
2.60774e-05
2.60963e-05
2.60974e-05
2.6101e-05
2.60763e-05
2.60436e-05
2.60587e-05
2.6e-05
2.6e-05
2.6e-05
2.6e-05
2.6e-05
2.6e-05
2.6e-05
2.6e-05
2.6e-05
2.6e-05
2.6e-05
2.6e-05
2.6e-05
2.6e-05
2.6e-05
2.6e-05
2.6e-05
2.6e-05
2.6e-05
2.60001e-05
2.60001e-05
2.60002e-05
2.60002e-05
2.60001e-05
2.60002e-05
2.60005e-05
2.60011e-05
2.60019e-05
2.60028e-05
2.60037e-05
2.60046e-05
2.60056e-05
2.60072e-05
2.6009e-05
2.6013e-05
2.60197e-05
2.60279e-05
2.60343e-05
2.60441e-05
2.60523e-05
2.60678e-05
2.60762e-05
2.60966e-05
2.60924e-05
2.61053e-05
2.60708e-05
2.60327e-05
2.60598e-05
2.6e-05
2.6e-05
2.6e-05
2.6e-05
2.6e-05
2.6e-05
2.6e-05
2.6e-05
2.6e-05
2.6e-05
2.6e-05
2.6e-05
2.6e-05
2.6e-05
2.6e-05
2.6e-05
2.6e-05
2.6e-05
2.6e-05
2.60001e-05
2.60001e-05
2.60001e-05
2.60001e-05
2.60002e-05
2.60005e-05
2.60009e-05
2.60015e-05
2.60024e-05
2.60033e-05
2.60042e-05
2.60048e-05
2.60056e-05
2.60068e-05
2.60089e-05
2.60127e-05
2.60198e-05
2.60282e-05
2.60348e-05
2.60436e-05
2.60526e-05
2.60655e-05
2.60768e-05
2.609e-05
2.60945e-05
2.60915e-05
2.60674e-05
2.60296e-05
2.60656e-05
2.6e-05
2.6e-05
2.6e-05
2.6e-05
2.6e-05
2.6e-05
2.6e-05
2.6e-05
2.6e-05
2.6e-05
2.6e-05
2.6e-05
2.6e-05
2.6e-05
2.6e-05
2.6e-05
2.6e-05
2.6e-05
2.6e-05
2.6e-05
2.6e-05
2.6e-05
2.60001e-05
2.60004e-05
2.60006e-05
2.60009e-05
2.60015e-05
2.60023e-05
2.6003e-05
2.60038e-05
2.60046e-05
2.60052e-05
2.60062e-05
2.60075e-05
2.60119e-05
2.60193e-05
2.60277e-05
2.60346e-05
2.60428e-05
2.60518e-05
2.60636e-05
2.60742e-05
2.60872e-05
2.60891e-05
2.60897e-05
2.60659e-05
2.60326e-05
2.60558e-05
2.6e-05
2.6e-05
2.6e-05
2.6e-05
2.6e-05
2.6e-05
2.6e-05
2.6e-05
2.6e-05
2.6e-05
2.6e-05
2.6e-05
2.6e-05
2.6e-05
2.6e-05
2.6e-05
2.6e-05
2.6e-05
2.6e-05
2.60001e-05
2.60001e-05
2.60001e-05
2.60003e-05
2.60006e-05
2.60008e-05
2.60012e-05
2.60018e-05
2.60025e-05
2.60031e-05
2.60038e-05
2.60045e-05
2.60049e-05
2.60051e-05
2.60066e-05
2.60102e-05
2.60179e-05
2.60263e-05
2.60336e-05
2.60403e-05
2.60502e-05
2.60584e-05
2.60721e-05
2.60763e-05
2.60876e-05
2.60724e-05
2.60616e-05
2.6024e-05
2.60686e-05
2.6e-05
2.6e-05
2.6e-05
2.6e-05
2.6e-05
2.6e-05
2.6e-05
2.6e-05
2.6e-05
2.6e-05
2.6e-05
2.6e-05
2.6e-05
2.6e-05
2.6e-05
2.6e-05
2.6e-05
2.6e-05
2.6e-05
2.6e-05
2.60001e-05
2.60002e-05
2.60004e-05
2.60006e-05
2.60008e-05
2.60011e-05
2.60016e-05
2.60021e-05
2.60026e-05
2.60031e-05
2.60037e-05
2.60041e-05
2.60045e-05
2.60047e-05
2.6008e-05
2.60155e-05
2.6024e-05
2.60315e-05
2.6038e-05
2.60473e-05
2.60549e-05
2.60665e-05
2.6072e-05
2.6079e-05
2.60693e-05
2.60548e-05
2.60242e-05
2.60497e-05
2.6e-05
2.6e-05
2.6e-05
2.6e-05
2.6e-05
2.6e-05
2.6e-05
2.6e-05
2.6e-05
2.6e-05
2.6e-05
2.6e-05
2.6e-05
2.6e-05
2.6e-05
2.6e-05
2.6e-05
2.6e-05
2.60001e-05
2.60001e-05
2.60002e-05
2.60002e-05
2.60004e-05
2.60008e-05
2.6001e-05
2.60013e-05
2.60016e-05
2.6002e-05
2.60023e-05
2.60027e-05
2.60031e-05
2.60035e-05
2.60035e-05
2.60038e-05
2.60055e-05
2.60122e-05
2.60206e-05
2.60285e-05
2.60334e-05
2.60433e-05
2.60469e-05
2.60607e-05
2.60576e-05
2.6072e-05
2.60492e-05
2.60479e-05
2.60162e-05
2.60533e-05
2.6e-05
2.6e-05
2.6e-05
2.6e-05
2.6e-05
2.6e-05
2.6e-05
2.6e-05
2.6e-05
2.6e-05
2.6e-05
2.6e-05
2.6e-05
2.60001e-05
2.6e-05
2.6e-05
2.6e-05
2.60001e-05
2.60001e-05
2.60001e-05
2.60002e-05
2.60003e-05
2.60005e-05
2.60008e-05
2.60009e-05
2.60011e-05
2.60013e-05
2.60014e-05
2.60016e-05
2.60017e-05
2.60021e-05
2.60023e-05
2.60028e-05
2.60025e-05
2.60035e-05
2.60085e-05
2.60163e-05
2.60244e-05
2.60293e-05
2.60379e-05
2.60413e-05
2.60521e-05
2.6051e-05
2.60611e-05
2.60444e-05
2.60398e-05
2.60154e-05
2.60405e-05
2.6e-05
2.6e-05
2.6e-05
2.6e-05
2.6e-05
2.6e-05
2.6e-05
2.6e-05
2.6e-05
2.6e-05
2.6e-05
2.6e-05
2.6e-05
2.60001e-05
2.6e-05
2.60001e-05
2.60001e-05
2.60001e-05
2.60001e-05
2.60002e-05
2.60003e-05
2.60004e-05
2.60006e-05
2.6001e-05
2.60011e-05
2.60011e-05
2.60012e-05
2.60012e-05
2.60012e-05
2.60013e-05
2.60015e-05
2.60016e-05
2.60018e-05
2.60023e-05
2.60022e-05
2.60054e-05
2.60117e-05
2.60196e-05
2.60235e-05
2.60317e-05
2.60322e-05
2.60429e-05
2.60367e-05
2.60489e-05
2.60265e-05
2.60288e-05
2.6007e-05
2.6037e-05
2.6e-05
2.6e-05
2.6e-05
2.6e-05
2.6e-05
2.6e-05
2.6e-05
2.6e-05
2.6e-05
2.6e-05
2.6e-05
2.6e-05
2.6e-05
2.60001e-05
2.6e-05
2.60001e-05
2.60001e-05
2.60001e-05
2.60001e-05
2.60001e-05
2.60003e-05
2.60004e-05
2.60006e-05
2.60009e-05
2.60009e-05
2.60009e-05
2.60008e-05
2.60006e-05
2.60006e-05
2.60008e-05
2.60011e-05
2.60011e-05
2.60014e-05
2.60014e-05
2.60019e-05
2.60038e-05
2.60082e-05
2.60151e-05
2.60194e-05
2.60258e-05
2.60276e-05
2.60344e-05
2.60323e-05
2.60386e-05
2.60264e-05
2.60231e-05
2.60103e-05
2.60273e-05
2.6e-05
2.6e-05
2.6e-05
2.6e-05
2.6e-05
2.6e-05
2.6e-05
2.6e-05
2.6e-05
2.6e-05
2.6e-05
2.6e-05
2.6e-05
2.60001e-05
2.60001e-05
2.60001e-05
2.60001e-05
2.60001e-05
2.60001e-05