/*--------------------------------*- C++ -*----------------------------------*\
  =========                 |
  \\      /  F ield         | OpenFOAM: The Open Source CFD Toolbox
   \\    /   O peration     | Website:  https://openfoam.org
    \\  /    A nd           | Version:  10
     \\/     M anipulation  |
\*---------------------------------------------------------------------------*/
FoamFile
{
    format      ascii;
    class       volScalarField;
    location    "5";
    object      p;
}
// * * * * * * * * * * * * * * * * * * * * * * * * * * * * * * * * * * * * * //

dimensions      [0 2 -2 0 0 0 0];

internalField   nonuniform List<scalar> 
38016
(
2.13287
2.48001
2.59538
2.48318
2.17271
1.70789
1.05284
0.197018
-0.971439
-2.48505
-4.35945
-6.68363
-9.53522
-12.9527
-16.9645
-21.5677
-26.7657
-32.1342
-38.0769
-44.4069
-51.2286
-58.7577
-68.5497
-79.5179
-94.8603
-117.051
-154.18
-200.734
-255.995
-314.941
-372.641
-426.184
-473.433
-513.127
-544.806
-568.575
-584.829
-594.233
-597.401
-595.271
-588.735
-578.594
-565.551
-550.03
-532.169
-511.692
-487.534
-452.948
2.16898
2.5248
2.64861
2.54376
2.23981
1.78242
1.1348
0.287427
-0.872603
-2.37721
-4.24343
-6.5603
-9.40717
-12.8208
-16.8312
-21.4327
-26.6254
-31.9889
-37.9191
-44.2255
-51.0189
-58.5041
-68.2571
-79.1591
-94.4438
-116.775
-154.409
-201.732
-258.066
-318.266
-377.292
-432.154
-480.637
-521.459
-554.118
-578.715
-595.64
-605.566
-609.13
-607.266
-600.88
-590.752
-577.61
-561.876
-543.678
-522.696
-497.713
-461.523
2.20537
2.56966
2.70146
2.60387
2.30631
1.85622
1.21588
0.376753
-0.774983
-2.2707
-4.12885
-6.43832
-9.28014
-12.6893
-16.6971
-21.2951
-26.4802
-31.8359
-37.7504
-44.0306
-50.7949
-58.2443
-67.972
-78.8867
-94.2479
-116.857
-155.078
-203.246
-260.668
-322.084
-382.351
-438.393
-487.931
-529.662
-563.055
-588.221
-605.554
-615.746
-619.463
-617.648
-611.208
-600.94
-587.573
-571.547
-553.002
-531.616
-506.092
-470.74
2.24152
2.61423
2.75421
2.66379
2.37261
1.92974
1.29665
0.465634
-0.67788
-2.16483
-4.01502
-6.31737
-9.15435
-12.5594
-16.5649
-21.16
-26.3377
-31.6861
-37.5845
-43.837
-50.568
-57.9717
-67.6411
-78.4847
-93.9333
-116.71
-155.377
-204.271
-262.681
-325.251
-386.737
-443.978
-494.624
-537.342
-571.573
-597.429
-615.309
-625.924
-629.981
-628.438
-622.221
-612.154
-598.98
-583.173
-564.912
-543.927
-519.134
-486.73
2.2781
2.65915
2.80704
2.72382
2.43904
2.00339
1.37754
0.554616
-0.580664
-2.05885
-3.90111
-6.19639
-9.0285
-12.4295
-16.4328
-21.0248
-26.1947
-31.5359
-37.4175
-43.6415
-50.3377
-57.6962
-67.3056
-78.1043
-93.5718
-116.512
-155.588
-205.173
-264.515
-328.176
-390.82
-449.202
-500.913
-544.592
-579.659
-606.229
-624.72
-635.859
-640.399
-639.315
-633.558
-623.991
-611.382
-596.259
-578.877
-559.129
-536.312
-508.229
2.31447
2.70384
2.85989
2.78383
2.50548
2.07703
1.45847
0.643604
-0.483365
-1.95271
-3.78694
-6.07507
-8.90208
-12.2989
-16.2995
-20.8881
-26.0494
-31.3827
-37.2462
-43.4396
-50.0983
-57.4081
-66.9435
-77.6753
-93.1447
-116.223
-155.664
-205.91
-266.149
-330.863
-394.621
-454.091
-506.807
-551.377
-587.212
-614.433
-633.494
-645.141
-650.193
-649.656
-644.52
-635.701
-624.004
-610.02
-594.111
-576.341
-556.393
-533.104
2.35125
2.74885
2.91277
2.84387
2.57196
2.15069
1.5394
0.732552
-0.386119
-1.84666
-3.67289
-5.95397
-8.77593
-12.1686
-16.1667
-20.7518
-25.9045
-31.23
-37.0749
-43.2371
-49.8567
-57.1163
-66.571
-77.2364
-92.6724
-115.863
-155.61
-206.455
-267.508
-333.18
-397.956
-458.418
-512.05
-557.439
-593.987
-621.84
-641.486
-653.709
-659.392
-659.584
-655.323
-647.579
-637.195
-624.831
-610.941
-595.738
-579.158
-560.699
2.38782
2.79364
2.96569
2.90391
2.63847
2.22436
1.62038
0.821525
-0.288781
-1.74046
-3.55864
-5.83261
-8.64935
-12.0379
-16.0331
-20.6145
-25.7581
-31.0755
-36.9009
-43.0306
-49.6095
-56.817
-66.1828
-76.7746
-92.156
-115.436
-155.442
-206.84
-268.649
-335.211
-400.931
-462.305
-516.773
-562.9
-600.097
-628.538
-648.763
-661.602
-668.016
-669.105
-665.962
-659.603
-650.901
-640.572
-629.112
-616.834
-603.805
-590.004
2.42482
2.83875
3.01864
2.964
2.70503
2.29808
1.70139
0.910487
-0.191452
-1.63429
-3.44441
-5.71135
-8.52286
-11.9073
-15.8997
-20.4774
-25.6116
-30.9209
-36.7262
-42.8228
-49.3592
-56.5126
-65.7825
-76.2948
-91.5951
-114.934
-155.141
-207.028
-269.513
-336.878
-403.45
-465.647
-520.867
-567.668
-605.468
-634.496
-655.342
-668.899
-676.208
-678.424
-676.689
-672.041
-665.375
-657.403
-648.645
-639.413
-629.871
-620.308
2.46161
2.88365
3.07162
3.02407
2.7716
2.37177
1.78243
0.999444
-0.094075
-1.52803
-3.33006
-5.58994
-8.39612
-11.7764
-15.7658
-20.3396
-25.4642
-30.7653
-36.5499
-42.6123
-49.1047
-56.2023
-65.3691
-75.7955
-90.9908
-114.361
-154.714
-207.033
-270.124
-338.208
-405.549
-468.485
-524.378
-571.791
-610.159
-639.78
-661.299
-675.691
-684.069
-687.647
-687.589
-684.935
-680.566
-675.145
-669.165
-662.916
-656.599
-650.728
2.49883
2.92887
3.12464
3.08419
2.83824
2.44553
1.86351
1.08842
0.00332654
-1.42176
-3.21569
-5.46856
-8.26938
-11.6455
-15.632
-20.2019
-25.3165
-30.6095
-36.3728
-42.4004
-48.8473
-55.8868
-64.9443
-75.277
-90.3436
-113.711
-154.154
-206.836
-270.451
-339.167
-407.185
-470.772
-527.263
-575.235
-614.154
-644.395
-666.676
-682.047
-691.696
-696.873
-698.74
-698.306
-696.383
-693.575
-690.285
-686.805
-683.313
-680.528
2.53585
2.97388
3.1777
3.14429
2.90488
2.51926
1.9446
1.17737
0.100755
-1.31543
-3.10123
-5.3471
-8.14248
-11.5145
-15.4978
-20.0638
-25.1684
-30.4531
-36.1948
-42.1869
-48.5869
-55.5666
-64.5087
-74.7408
-89.6546
-112.987
-153.46
-206.439
-270.497
-339.752
-408.357
-472.511
-529.529
-578.017
-617.486
-648.393
-671.541
-688.052
-699.175
-706.166
-710.148
-712.068
-712.629
-712.35
-711.56
-710.522
-709.43
-709.149
2.57331
3.01922
3.23079
3.20445
2.9716
2.59305
2.02574
1.26634
0.198218
-1.20906
-2.98673
-5.22563
-8.01555
-11.3836
-15.3637
-19.9257
-25.0202
-30.2967
-36.0163
-41.9725
-48.3246
-55.2424
-64.064
-74.1874
-88.9261
-112.187
-152.632
-205.834
-270.248
-339.949
-409.048
-473.686
-531.168
-580.141
-620.179
-651.823
-675.962
-693.783
-706.57
-715.549
-721.772
-726.074
-729.057
-731.116
-732.556
-733.597
-734.478
-736.168
2.61056
3.06435
3.28392
3.26459
3.0383
2.66682
2.10689
1.3553
0.295703
-1.10265
-2.87215
-5.10409
-7.88849
-11.2525
-15.2294
-19.7875
-24.8717
-30.1402
-35.8376
-41.7575
-48.061
-54.9155
-63.6116
-73.6195
-88.1602
-111.314
-151.669
-205.019
-269.703
-339.752
-409.256
-474.299
-532.191
-581.631
-622.275
-654.743
-680.01
-699.309
-713.923
-725.007
-733.514
-740.138
-745.374
-749.532
-752.882
-755.657
-758.111
-761.322
2.64826
3.10981
3.33709
3.32479
3.10508
2.74065
2.18808
1.44428
0.393228
-0.9962
-2.75752
-4.98255
-7.76141
-11.1215
-15.0952
-19.6494
-24.7235
-29.9842
-35.6593
-41.5429
-47.7969
-54.5869
-63.1537
-73.0388
-87.3613
-110.37
-150.576
-203.995
-268.857
-339.16
-408.978
-474.355
-532.613
-582.522
-623.826
-657.223
-683.757
-704.686
-721.243
-734.486
-745.227
-754.042
-761.295
-767.279
-772.22
-776.402
-780.09
-784.463
2.68576
3.15506
3.39029
3.38496
3.17186
2.81445
2.26929
1.53325
0.490778
-0.889699
-2.64281
-4.86092
-7.63422
-10.9904
-14.961
-19.5114
-24.5754
-29.8286
-35.4815
-41.329
-47.5336
-54.2584
-62.6926
-72.4491
-86.5327
-109.36
-149.353
-202.763
-267.711
-338.172
-408.219
-473.863
-532.457
-582.853
-624.885
-659.324
-687.259
-709.938
-728.504
-743.883
-756.744
-767.538
-776.559
-784.066
-790.314
-795.605
-800.257
-805.515
2.72373
3.20066
3.44353
3.4452
3.23871
2.88832
2.35055
1.62224
0.588371
-0.783148
-2.52804
-4.73929
-7.507
-10.8594
-14.8269
-19.3738
-24.4278
-29.6741
-35.3051
-41.1169
-47.2723
-53.9315
-62.2314
-71.8536
-85.6809
-108.289
-148.009
-201.328
-266.268
-336.794
-406.986
-472.845
-531.758
-582.673
-625.517
-661.11
-690.565
-715.071
-735.649
-753.072
-767.878
-780.406
-790.921
-799.672
-806.957
-813.104
-818.489
-824.405
2.7615
3.24604
3.49681
3.50541
3.30555
2.96216
2.43182
1.71123
0.685997
-0.676537
-2.41318
-4.61755
-7.37966
-10.7283
-14.6929
-19.2364
-24.2809
-29.5207
-35.1304
-40.9075
-47.0143
-53.6088
-61.7731
-71.2575
-84.8117
-107.166
-146.55
-199.696
-264.537
-335.035
-405.298
-471.326
-530.558
-582.038
-625.782
-662.636
-693.7
-720.062
-742.591
-761.918
-778.442
-792.451
-804.184
-813.922
-821.999
-828.789
-834.703
-841.084
2.79975
3.29177
3.55012
3.56569
3.37247
3.03606
2.51314
1.80025
0.783676
-0.569862
-2.29825
-4.49579
-7.2523
-10.5973
-14.559
-19.0995
-24.1349
-29.3692
-34.9583
-40.7019
-46.7616
-53.2924
-61.3219
-70.6658
-83.934
-105.999
-144.988
-197.88
-262.531
-332.913
-403.179
-469.346
-528.909
-581.014
-625.745
-663.953
-696.675
-724.866
-749.239
-770.269
-788.281
-803.501
-816.21
-826.697
-835.362
-842.601
-848.871
-855.529
2.83779
3.3373
3.60349
3.62594
3.43939
3.10995
2.59447
1.88927
0.881401
-0.463106
-2.18321
-4.37391
-7.12481
-10.4663
-14.4254
-18.9631
-23.99
-29.2195
-34.7894
-40.5013
-46.516
-52.9855
-60.8822
-70.0853
-83.0564
-104.8
-143.335
-195.893
-260.264
-330.448
-400.657
-466.945
-526.866
-579.661
-625.462
-665.088
-699.477
-729.424
-755.477
-777.998
-797.242
-813.439
-826.888
-837.941
-847.022
-854.586
-861.094
-867.933
2.87634
3.38317
3.65689
3.68626
3.50637
3.1839
2.67587
1.97834
0.979192
-0.356265
-2.06807
-4.25197
-6.99727
-10.3355
-14.292
-18.8276
-23.8466
-29.0726
-34.6247
-40.3073
-46.2798
-52.6912
-60.4593
-69.523
-82.1907
-103.583
-141.609
-193.755
-257.76
-327.67
-397.777
-464.177
-524.495
-578.046
-624.987
-666.063
-702.081
-733.659
-761.201
-784.982
-805.213
-822.159
-836.146
-847.586
-856.933
-864.682
-871.305
-878.199
2.9147
3.42886
3.71034
3.74656
3.57337
3.25783
2.75728
2.06743
1.07705
-0.249314
-1.95278
-4.12986
-6.86959
-10.2045
-14.1589
-18.6927
-23.7049
-28.9286
-34.4649
-40.121
-46.0552
-52.4135
-60.0589
-68.9878
-81.3487
-102.364
-139.829
-191.488
-255.046
-324.612
-394.58
-461.095
-521.857
-576.227
-624.354
-666.878
-704.441
-737.489
-766.317
-791.116
-812.12
-829.611
-843.973
-855.666
-865.182
-873.044
-879.738
-886.663
2.95356
3.47489
3.76382
3.80692
3.64043
3.33184
2.83876
2.15657
1.17499
-0.142245
-1.83736
-4.00764
-6.74182
-10.0737
-14.0262
-18.5589
-23.5652
-28.7885
-34.3112
-39.9443
-45.845
-52.1562
-59.6876
-68.4889
-80.5458
-101.162
-138.019
-189.12
-252.155
-321.318
-391.123
-457.767
-519.021
-574.264
-623.596
-667.523
-706.506
-740.848
-770.728
-796.345
-817.907
-835.785
-850.374
-862.209
-871.784
-879.667
-886.329
-893.171
2.99225
3.52074
3.81737
3.86728
3.7075
3.40584
2.92028
2.24576
1.27304
-0.0350245
-1.72173
-3.8852
-6.61385
-9.94287
-13.8938
-18.4262
-23.4278
-28.6525
-34.1646
-39.7789
-45.6521
-51.9241
-59.3525
-68.0373
-79.7969
-99.9977
-136.203
-186.681
-249.124
-317.834
-387.458
-454.251
-516.043
-572.196
-622.723
-667.97
-708.223
-743.65
-774.383
-800.607
-822.579
-840.702
-855.446
-867.351
-876.968
-884.851
-891.505
-898.304
3.03146
3.56694
3.87095
3.9277
3.77465
3.47991
3.00187
2.33502
1.37119
0.0723605
-1.60591
-3.76257
-6.48573
-9.81209
-13.7619
-18.2948
-23.2933
-28.5217
-34.0265
-39.6272
-45.48
-51.7219
-59.0615
-67.6446
-79.1209
-98.8952
-134.414
-184.21
-245.999
-314.214
-383.651
-450.62
-512.988
-570.063
-621.743
-668.193
-709.533
-745.837
-777.218
-803.868
-826.116
-844.393
-859.228
-871.174
-880.811
-888.685
-895.307
-902.023
3.0705
3.61297
3.92461
3.98811
3.84181
3.55399
3.08351
2.42435
1.46949
0.179953
-1.48982
-3.63962
-6.35733
-9.68121
-13.6305
-18.1647
-23.1619
-28.3964
-33.898
-39.491
-45.3319
-51.5556
-58.8231
-67.3234
-78.5361
-97.88
-132.682
-181.743
-242.824
-310.513
-379.76
-446.931
-509.899
-567.888
-620.644
-668.151
-710.379
-747.357
-779.178
-806.101
-828.5
-846.867
-861.776
-873.802
-883.555
-891.583
-898.418
-905.4
3.1101
3.65936
3.97829
4.04859
3.90906
3.62815
3.16524
2.51379
1.56794
0.287772
-1.37345
-3.51638
-6.22867
-9.55034
-13.4996
-18.0364
-23.0341
-28.2779
-33.7807
-39.3732
-45.2123
-51.4308
-58.6466
-67.0877
-78.0647
-96.9816
-131.045
-179.327
-239.655
-306.796
-375.86
-443.251
-506.831
-565.693
-619.42
-667.81
-710.734
-748.16
-780.252
-807.269
-829.696
-848.029
-862.908
-874.898
-884.643
-892.672
-899.53
-906.532
3.14953
3.70559
4.03206
4.10908
3.97632
3.70233
3.24705
2.60333
1.66658
0.395873
-1.25671
-3.3927
-6.09961
-9.41927
-13.3691
-17.9097
-22.9103
-28.1667
-33.6762
-39.2761
-45.125
-51.3545
-58.5421
-66.9519
-77.727
-96.2288
-129.54
-177.006
-236.543
-303.118
-372.004
-439.624
-503.804
-563.475
-618.042
-667.14
-710.548
-748.244
-780.412
-807.399
-829.717
-847.953
-862.731
-874.685
-884.418
-892.488
-899.417
-906.451
3.18953
3.75219
4.08586
4.16964
4.04368
3.7766
3.32896
2.69301
1.76543
0.504282
-1.13958
-3.26858
-5.97015
-9.2881
-13.2393
-17.785
-22.7909
-28.0638
-33.586
-39.2027
-45.0748
-51.3333
-58.5201
-66.9314
-77.5465
-95.653
-128.207
-174.827
-233.545
-299.542
-368.25
-436.098
-500.839
-561.227
-616.485
-666.102
-709.806
-747.591
-779.673
-806.48
-828.552
-846.526
-861.035
-872.725
-882.182
-889.986
-896.606
-903.327
3.2294
3.79864
4.13976
4.23021
4.11106
3.85091
3.41097
2.78284
1.86453
0.613064
-1.02196
-3.14386
-5.8401
-9.15659
-13.1098
-17.6621
-22.6763
-27.97
-33.5119
-39.1557
-45.0661
-51.3749
-58.5917
-67.0419
-77.5446
-95.2833
-127.083
-172.834
-230.708
-296.118
-364.642
-432.699
-497.938
-558.929
-614.717
-664.672
-708.507
-746.222
-778.106
-804.633
-826.407
-844.096
-858.359
-869.849
-879.159
-886.845
-893.395
-900.016
3.26986
3.84547
4.19369
4.29087
4.17855
3.92534
3.49311
2.87286
1.96391
0.722257
-0.903799
-3.01852
-5.70945
-9.02478
-12.9809
-17.5416
-22.5671
-27.8864
-33.4558
-39.1387
-45.1045
-51.4866
-58.7684
-67.3005
-77.7459
-95.1518
-126.209
-171.079
-228.09
-292.902
-361.226
-429.453
-495.106
-556.565
-612.714
-662.85
-706.653
-744.19
-775.766
-801.932
-823.311
-840.609
-854.495
-865.634
-874.616
-882.002
-888.258
-894.589
3.31019
3.89216
4.24774
4.35154
4.24607
3.99981
3.57538
2.96308
2.06362
0.831938
-0.784993
-2.89237
-5.57798
-8.89241
-12.8524
-17.4231
-22.4636
-27.8138
-33.4193
-39.1544
-45.1946
-51.677
-59.0623
-67.7234
-78.1718
-95.2852
-125.618
-169.598
-225.731
-289.931
-358.025
-426.362
-492.323
-554.105
-610.459
-660.618
-704.287
-741.557
-772.801
-798.603
-819.636
-836.614
-850.227
-861.122
-869.896
-877.091
-883.162
-889.31
3.35115
3.93924
4.30182
4.41231
4.31371
4.07442
3.65781
3.05353
2.1637
0.942153
-0.665477
-2.76536
-5.44563
-8.75948
-12.7242
-17.3071
-22.3662
-27.7534
-33.4047
-39.2067
-45.3426
-51.9537
-59.4849
-68.3273
-78.8459
-95.7123
-125.343
-168.431
-223.678
-287.242
-355.065
-423.431
-489.575
-551.525
-607.925
-657.982
-701.428
-738.386
-769.287
-794.741
-815.453
-832.145
-845.512
-856.205
-864.811
-871.861
-877.802
-883.782
3.392
3.98621
4.35604
4.47311
4.3814
4.1491
3.74042
3.14425
2.26419
1.05299
-0.545117
-2.63728
-5.31216
-8.62567
-12.5962
-17.1933
-22.2754
-27.7059
-33.4137
-39.2986
-45.5531
-52.3255
-60.048
-69.1272
-79.7864
-96.4555
-125.405
-167.598
-221.95
-284.851
-352.342
-420.637
-486.826
-548.788
-605.086
-654.942
-698.094
-734.735
-765.324
-790.511
-811.021
-827.579
-840.892
-851.592
-860.279
-867.465
-873.604
-879.826
3.43351
4.03359
4.41029
4.53401
4.44922
4.22394
3.82322
3.23527
2.36515
1.16451
-0.423837
-2.50805
-5.17746
-8.49093
-12.4683
-17.082
-22.1915
-27.6726
-33.4484
-39.434
-45.8325
-52.8001
-60.7628
-70.1384
-81.0126
-97.5383
-125.826
-167.116
-220.564
-282.771
-349.855
-417.965
-484.048
-545.862
-601.935
-651.477
-694.309
-730.618
-760.939
-785.896
-806.251
-822.689
-835.935
-846.587
-855.26
-862.455
-868.637
-874.899
3.47494
4.08086
4.4647
4.59496
4.5171
4.29888
3.90622
3.32662
2.46663
1.27682
-0.301484
-2.37744
-5.04124
-8.3549
-12.3402
-16.9728
-22.1148
-27.6539
-33.5105
-39.6157
-46.1852
-53.3858
-61.6397
-71.3726
-82.536
-98.9725
-126.618
-166.977
-219.494
-280.973
-347.57
-415.37
-481.198
-542.719
-598.433
-647.597
-690.053
-726.051
-756.142
-780.995
-801.338
-817.891
-831.323
-842.262
-851.263
-858.828
-865.391
-871.988
3.51706
4.12855
4.51915
4.65602
4.58513
4.37401
3.98947
3.41834
2.56869
1.38997
-0.177965
-2.24534
-4.90338
-8.21744
-12.2118
-16.866
-22.0455
-27.6511
-33.6021
-39.8477
-46.6173
-54.0892
-62.6876
-72.841
-84.368
-100.769
-127.794
-167.19
-218.711
-279.407
-345.44
-412.813
-478.241
-539.325
-594.574
-643.27
-685.29
-720.934
-750.743
-775.412
-795.64
-812.146
-825.573
-836.541
-845.575
-853.182
-859.757
-866.41
3.55913
4.17617
4.57377
4.71715
4.65325
4.44926
4.07298
3.51048
2.67139
1.50409
-0.0531093
-2.11148
-4.76352
-8.07815
-12.0828
-16.7611
-21.9838
-27.6646
-33.7246
-40.1322
-47.1323
-54.9175
-63.9141
-74.5492
-86.5094
-102.922
-129.341
-167.734
-218.175
-277.982
-343.355
-410.21
-475.123
-535.653
-590.33
-638.482
-680.014
-715.253
-744.768
-769.26
-789.432
-805.99
-819.564
-830.76
-840.104
-848.086
-855.122
-862.182
3.60192
4.22423
4.62846
4.77841
4.72152
4.52473
4.15676
3.60306
2.77478
1.61924
0.0731872
-1.97575
-4.6215
-7.93682
-11.9529
-16.6581
-21.9298
-27.6951
-33.8796
-40.4727
-47.7355
-55.8751
-65.3244
-76.5021
-88.9599
-105.425
-131.247
-168.59
-217.854
-276.643
-341.203
-407.427
-471.764
-531.666
-585.694
-633.229
-674.203
-708.948
-738.033
-762.155
-782.017
-798.313
-811.671
-822.679
-831.851
-839.662
-846.489
-853.385
3.64471
4.27223
4.68332
4.83974
4.7899
4.60035
4.24086
3.69614
2.87894
1.73555
0.201113
-1.83784
-4.47693
-7.79298
-11.8216
-16.5565
-21.8832
-27.7428
-34.0681
-40.8704
-48.4287
-56.9664
-66.9209
-78.6963
-91.7056
-108.253
-133.474
-169.713
-217.688
-275.315
-338.908
-404.342
-468.02
-527.289
-580.646
-627.538
-667.934
-702.172
-730.821
-754.584
-774.167
-790.262
-803.495
-814.444
-823.619
-831.48
-838.436
-845.46
3.68825
4.3207
4.73827
4.90123
4.85847
4.67623
4.32528
3.78974
2.98393
1.85309
0.330781
-1.69761
-4.3296
-7.64636
-11.6886
-16.456
-21.8439
-27.8081
-34.2912
-41.3279
-49.2152
-58.1926
-68.7029
-81.1268
-94.7308
-111.376
-135.983
-171.057
-217.617
-273.92
-336.396
-400.903
-463.811
-522.424
-575.15
-621.427
-661.274
-695.025
-723.241
-746.605
-765.831
-781.593
-794.527
-805.193
-814.103
-821.703
-828.38
-835.128
3.73183
4.36914
4.79342
4.9628
4.92716
4.75229
4.41006
3.88392
3.08981
1.97199
0.462389
-1.55475
-4.17909
-7.49642
-11.5533
-16.3559
-21.8114
-27.8906
-34.5486
-41.8446
-50.0943
-59.5536
-70.6658
-83.7787
-98.0037
-114.745
-138.705
-172.539
-217.547
-272.355
-333.559
-397.021
-459.074
-517.005
-569.156
-614.909
-654.315
-687.716
-715.673
-738.869
-758.015
-773.783
-786.792
-797.596
-806.688
-814.505
-821.433
-828.436
3.77621
4.41807
4.84867
5.02455
4.99605
4.82863
4.49522
3.97871
3.19665
2.09232
0.596054
-1.40911
-4.02515
-7.34281
-11.4151
-16.2558
-21.7852
-27.99
-34.8406
-42.4213
-51.0663
-61.0454
-72.8005
-86.6345
-101.49
-118.306
-141.573
-174.081
-217.397
-270.531
-330.3
-392.605
-453.741
-510.982
-562.613
-607.957
-647.044
-680.211
-707.994
-731.042
-750.056
-765.693
-778.579
-789.261
-798.241
-805.946
-812.761
-819.642
3.82067
4.46699
4.90414
5.08642
5.06509
4.90519
4.58078
4.07417
3.30452
2.21422
0.731979
-1.26035
-3.86733
-7.18491
-11.2734
-16.1547
-21.7641
-28.1051
-35.1655
-43.0554
-52.1267
-62.662
-75.0929
-89.6651
-105.139
-121.984
-144.491
-175.575
-217.066
-268.343
-326.502
-387.543
-447.725
-504.277
-555.457
-600.518
-639.454
-672.606
-700.487
-723.74
-743.033
-759.004
-772.247
-783.291
-792.619
-800.657
-807.769
-814.961
3.86597
4.51644
4.95973
5.14847
5.13435
4.98207
4.66677
4.17031
3.41346
2.33774
0.870276
-1.10831
-3.70535
-7.02233
-11.1275
-16.0518
-21.7472
-28.2346
-35.5219
-43.7448
-53.2715
-64.3927
-77.524
-92.8388
-108.898
-125.704
-147.368
-176.919
-216.447
-265.688
-322.065
-381.733
-440.921
-496.812
-547.605
-592.48
-631.374
-664.592
-692.623
-716.089
-735.648
-751.939
-765.551
-777.019
-786.826
-795.396
-803.108
-810.934
3.91141
4.56593
5.01557
5.21066
5.20378
5.05919
4.75321
4.26718
3.52355
2.46302
1.01115
-0.952668
-3.53874
-6.85438
-10.9764
-15.946
-21.7328
-28.3765
-35.9064
-44.4839
-54.4912
-66.2236
-80.0684
-96.111
-112.695
-129.369
-150.086
-177.987
-215.41
-262.44
-316.869
-375.054
-433.215
-488.462
-538.942
-583.745
-622.73
-656.147
-684.45
-708.228
-728.122
-744.758
-758.72
-770.536
-780.685
-789.6
-797.655
-805.841
3.95776
4.61596
5.07155
5.27305
5.27346
5.13666
4.84012
4.36481
3.63482
2.59011
1.15469
-0.793272
-3.36723
-6.68061
-10.8196
-15.836
-21.7194
-28.5283
-36.3156
-45.2674
-55.7767
-68.1362
-82.6959
-99.4355
-116.461
-132.884
-152.536
-178.664
-213.844
-258.52
-310.835
-367.4
-424.481
-479.106
-529.331
-574.17
-613.386
-647.15
-675.852
-700.036
-720.303
-737.266
-751.494
-763.528
-773.833
-782.866
-790.994
-799.228
4.00429
4.66606
5.1278
5.33561
5.34332
5.21441
4.92752
4.46325
3.74735
2.71912
1.30109
-0.629795
-3.19033
-6.50029
-10.6558
-15.7203
-21.7044
-28.6867
-36.744
-46.0858
-57.1127
-70.1081
-85.3695
-102.753
-120.11
-136.139
-154.589
-178.812
-211.616
-253.801
-303.847
-358.651
-414.588
-468.582
-518.599
-563.559
-603.141
-637.436
-666.794
-691.707
-712.762
-730.524
-745.568
-758.392
-769.489
-779.287
-788.187
-797.231
4.05178
4.71675
5.18422
5.3984
5.41345
5.29252
5.01543
4.56249
3.86115
2.8501
1.45042
-0.462118
-3.00777
-6.31294
-10.4843
-15.5976
-21.6859
-28.8479
-37.1857
-46.9302
-58.484
-72.1124
-88.0482
-106.005
-123.559
-139.028
-156.13
-178.316
-208.62
-248.183
-295.808
-348.709
-403.402
-456.74
-506.547
-551.652
-591.633
-626.483
-656.5
-682.122
-703.918
-722.429
-738.23
-751.813
-763.677
-774.226
-783.873
-793.664
4.09953
4.76755
5.24094
5.46136
5.48379
5.37094
5.10386
4.6626
3.9763
2.98315
1.60286
-0.289934
-2.8191
-6.11781
-10.3037
-15.4659
-21.6605
-29.0071
-37.6328
-47.7869
-59.8694
-74.1181
-90.6842
-109.121
-126.712
-141.437
-157.031
-177.047
-204.732
-241.555
-286.652
-337.501
-390.806
-443.406
-492.979
-538.222
-578.617
-614.072
-644.823
-671.257
-693.905
-713.278
-729.929
-744.338
-756.999
-768.336
-778.759
-789.314
4.1483
4.81898
5.29785
5.52458
5.55441
5.44975
5.19282
4.76356
4.09279
3.11827
1.75846
-0.11316
-2.62405
-5.91441
-10.1132
-15.3236
-21.6254
-29.1594
-38.0771
-48.6433
-61.2481
-76.091
-93.2277
-112.033
-129.482
-143.261
-157.184
-174.9
-199.858
-233.835
-276.296
-324.949
-376.696
-428.441
-477.696
-523.005
-563.73
-599.678
-631.009
-658.059
-681.318
-701.284
-718.492
-733.431
-746.589
-758.39
-769.242
-780.189
4.1974
4.87056
5.35509
5.58801
5.62526
5.52889
5.28234
4.86541
4.21067
3.25556
1.91735
0.0684722
-2.42222
-5.70201
-9.91152
-15.1685
-21.5769
-29.2985
-38.5082
-49.4819
-62.5935
-77.9932
-95.6238
-114.665
-131.773
-144.392
-156.473
-171.764
-193.898
-224.938
-264.657
-310.987
-361.012
-411.715
-460.532
-505.809
-546.778
-583.16
-615.047
-642.73
-666.666
-687.329
-705.24
-720.874
-734.72
-747.204
-758.754
-770.458
4.24759
4.92281
5.41256
5.65171
5.69642
5.60843
5.37241
4.96815
4.32995
3.395
2.07955
0.255003
-2.21339
-5.48013
-9.69763
-14.9986
-21.5114
-29.4185
-38.9161
-50.287
-63.8805
-79.7852
-97.8178
-116.948
-133.503
-144.74
-154.813
-167.561
-186.785
-214.807
-251.691
-295.598
-343.721
-393.169
-441.358
-486.453
-527.52
-564.173
-596.421
-624.511
-648.853
-669.91
-688.186
-704.165
-718.324
-731.102
-742.929
-754.887
4.29818
4.97528
5.47038
5.71564
5.76782
5.68832
5.46305
5.0718
4.45064
3.53666
2.24515
0.446651
-1.99721
-5.24808
-9.47017
-14.8117
-21.4248
-29.512
-39.2885
-51.0383
-65.0787
-81.4253
-99.7522
-118.806
-134.584
-144.214
-152.112
-162.208
-178.451
-203.389
-237.356
-278.738
-324.833
-372.799
-420.126
-464.863
-505.899
-542.746
-575.347
-603.906
-628.8
-650.467
-669.385
-686.023
-700.849
-714.298
-726.801
-739.479
4.34994
5.02845
5.52847
5.77987
5.83954
5.76862
5.55425
5.17634
4.57273
3.68049
2.41414
0.643399
-1.77355
-5.00548
-9.22828
-14.6056
-21.3132
-29.5722
-39.614
-51.7183
-66.1609
-82.8725
-101.373
-120.177
-134.948
-142.749
-148.316
-155.662
-168.866
-190.667
-221.651
-260.422
-304.382
-350.687
-396.875
-441
-481.785
-518.599
-551.289
-580.018
-605.11
-626.99
-646.115
-662.958
-677.975
-691.61
-704.299
-717.168
4.40219
5.08188
5.58694
5.84435
5.91152
5.84929
5.64603
5.28179
4.69623
3.82654
2.58657
0.845408
-1.54211
-4.75169
-8.97062
-14.3781
-21.1722
-29.5913
-39.8794
-52.3054
-67.0958
-84.0855
-102.627
-120.996
-134.529
-140.285
-143.372
-147.882
-158
-176.626
-204.572
-240.664
-282.421
-326.977
-371.823
-415.036
-455.327
-491.94
-524.616
-553.482
-578.829
-601.062
-620.61
-637.929
-653.457
-667.63
-680.878
-694.36
4.45569
5.13608
5.64572
5.90916
5.98383
5.93038
5.73837
5.38813
4.82112
3.97475
2.76239
1.0526
-1.30286
-4.48645
-8.69644
-14.1272
-20.9979
-29.5625
-40.073
-52.782
-67.8571
-85.0263
-103.467
-121.211
-133.28
-136.789
-137.262
-138.863
-145.863
-161.288
-186.157
-219.513
-259.02
-301.813
-345.26
-387.343
-426.825
-462.931
-495.261
-523.878
-549.03
-571.112
-590.531
-607.75
-623.187
-637.289
-650.468
-663.91
4.50977
5.1906
5.70491
5.97424
6.05642
6.01184
5.83128
5.49537
4.94739
4.12512
2.9416
1.26508
-1.0556
-4.20921
-8.40455
-13.8507
-20.786
-29.4779
-40.1822
-53.1276
-68.4156
-85.6585
-103.849
-120.776
-131.162
-132.236
-129.976
-128.609
-132.468
-144.677
-166.439
-197.021
-234.249
-275.293
-317.42
-358.461
-397.072
-432.499
-464.344
-492.614
-517.521
-539.447
-558.792
-576.009
-591.512
-605.733
-619.067
-632.759
4.56518
5.24593
5.76444
6.03967
6.12937
6.09374
5.92476
5.60347
5.075
4.27757
3.12412
1.48272
-0.800368
-3.9199
-8.09438
-13.5469
-20.5331
-29.3314
-40.1961
-53.3266
-68.7491
-85.9515
-103.739
-119.661
-128.159
-126.632
-121.539
-117.159
-117.867
-126.854
-145.487
-173.257
-208.181
-247.508
-288.451
-328.729
-366.787
-401.75
-433.201
-461.102
-485.631
-507.165
-526.095
-542.887
-557.944
-571.711
-584.545
-597.779
4.62128
5.30166
5.82443
6.10541
6.2026
6.17601
6.01881
5.71245
5.20395
4.4321
3.30992
1.70554
-0.537081
-3.61807
-7.76498
-13.2138
-20.2354
-29.1159
-40.1037
-53.3613
-68.8337
-85.8782
-103.107
-117.839
-124.26
-119.988
-111.983
-104.56
-102.116
-107.882
-123.368
-148.29
-180.877
-218.494
-258.354
-298.136
-336.078
-371.187
-402.928
-431.254
-456.298
-478.427
-497.988
-515.434
-531.143
-545.551
-558.983
-572.889
4.6788
5.35825
5.8848
6.17151
6.2762
6.25871
6.11341
5.82225
5.33416
4.58862
3.49888
1.93337
-0.265869
-3.30383
-7.41605
-12.8504
-19.8902
-28.8265
-39.8964
-53.2201
-68.654
-85.419
-101.937
-115.306
-119.482
-112.35
-101.373
-90.8929
-85.3064
-87.8587
-100.18
-122.209
-152.406
-188.292
-227.102
-266.455
-304.484
-340.011
-372.437
-401.593
-427.589
-450.695
-471.275
-489.73
-506.47
-521.891
-536.351
-551.374
4.73711
5.41531
5.94566
6.23796
6.3501
6.3418
6.20857
5.9329
5.46564
4.74709
3.69094
2.16619
0.0132713
-2.97689
-7.0469
-12.455
-19.4945
-28.4578
-39.5658
-52.89
-68.1936
-84.5585
-100.217
-112.059
-113.846
-103.764
-89.7782
-76.2401
-67.5292
-66.8804
-76.0228
-95.1079
-122.848
-156.935
-194.685
-233.636
-271.828
-307.922
-341.188
-371.339
-398.432
-422.665
-444.382
-463.951
-481.78
-498.247
-513.731
-529.856
4.79694
5.4733
6.00695
6.3048
6.42439
6.42533
6.30426
6.04433
5.59832
4.90742
3.88598
2.40379
0.300133
-2.63749
-6.6575
-12.027
-19.0465
-28.0065
-39.1064
-52.3644
-67.4455
-83.2901
-97.9477
-108.116
-107.395
-94.3038
-77.2941
-60.7126
-48.9038
-45.0708
-51.0186
-67.102
-92.2931
-124.497
-161.111
-199.64
-238.011
-274.766
-308.99
-340.25
-368.513
-393.924
-416.782
-437.445
-456.31
-473.787
-490.258
-507.441
4.85768
5.53182
6.06877
6.372
6.499
6.50924
6.40051
6.15658
5.73219
5.06958
4.08392
2.6461
0.594648
-2.28549
-6.24749
-11.5656
-18.5445
-27.4693
-38.5134
-51.6365
-66.4027
-81.6119
-95.1358
-103.499
-100.176
-84.0439
-64.0171
-44.4228
-29.5529
-22.5604
-25.3041
-38.3277
-60.8698
-91.0665
-126.437
-164.439
-202.937
-240.329
-275.509
-307.897
-337.372
-364.014
-388.095
-409.955
-430
-448.638
-466.254
-484.66
4.92004
5.59134
6.13107
6.43963
6.57401
6.59361
6.49731
6.26961
5.86722
5.23351
4.28468
2.89299
0.896639
-1.92119
-5.81708
-11.0707
-17.9879
-26.8454
-37.7857
-50.7067
-65.0687
-79.532
-91.8014
-98.2478
-92.2555
-73.0796
-50.0652
-27.5036
-9.62223
0.494118
0.953599
-8.95818
-28.7466
-56.8029
-90.7848
-128.151
-166.714
-204.713
-240.844
-274.386
-305.088
-332.961
-358.238
-381.247
-402.385
-422.084
-440.721
-460.252
4.98342
5.65148
6.19395
6.50767
6.64938
6.67839
6.59466
6.38344
6.0034
5.3992
4.48822
3.14441
1.20603
-1.54451
-5.36607
-10.5417
-17.376
-26.1332
-36.9215
-49.5732
-63.4444
-77.0592
-87.9645
-92.3988
-83.6945
-61.4961
-35.5413
-10.0731
10.7608
23.9565
27.6098
20.8572
3.93177
-21.8276
-54.2598
-90.858
-129.377
-167.893
-204.963
-239.72
-271.774
-301.067
-327.787
-352.247
-374.83
-395.954
-416.014
-437.071
5.04852
5.71269
6.25736
6.57616
6.72516
6.76362
6.69254
6.49802
6.14068
5.56654
4.69437
3.40009
1.5225
-1.15595
-4.895
-9.97933
-16.7091
-25.3333
-35.9221
-48.24
-61.5384
-74.2096
-83.6557
-86.005
-74.5727
-49.3995
-20.572
7.73106
31.45
47.6752
54.5108
50.9664
37.0249
13.7394
-16.9366
-52.5849
-90.8851
-129.783
-167.732
-203.68
-237.062
-267.729
-295.815
-321.611
-345.488
-367.877
-389.149
-411.514
5.11479
5.7746
6.32138
6.64509
6.80132
6.84927
6.79098
6.61337
6.27903
5.7355
4.90307
3.65997
1.84592
-0.755558
-4.40394
-9.38343
-15.9872
-24.446
-34.7886
-46.71
-59.3588
-71.0017
-78.9076
-79.1174
-64.9661
-36.8897
-5.27499
25.7749
52.3001
71.4947
81.4897
81.1937
70.3564
49.7402
21.0472
-13.4153
-51.2716
-90.4089
-129.194
-166.381
-201.224
-233.466
-263.182
-290.626
-316.148
-340.168
-363.058
-387.174
5.18288
5.83766
6.38601
6.71451
6.87792
6.93539
6.88996
6.72945
6.41842
5.90601
5.11419
3.92378
2.17591
-0.343956
-3.89369
-8.7552
-15.2119
-23.4737
-33.5254
-44.9923
-56.9213
-67.4607
-73.7619
-71.8005
-54.9644
-24.0798
10.2178
43.9145
73.1557
95.2487
108.369
111.35
103.732
85.98
59.5349
26.5298
-10.6284
-49.8233
-89.299
-127.621
-163.873
-197.646
-228.932
-257.941
-284.993
-310.505
-334.821
-360.43
5.25225
5.90151
6.45129
6.78441
6.95493
7.02195
6.98949
6.84629
6.55884
6.07804
5.32766
4.19148
2.51236
0.0787527
-3.36453
-8.09495
-14.3842
-22.4182
-32.1366
-43.0937
-54.2396
-63.6118
-68.258
-64.1117
-44.6463
-11.067
25.796
62.0262
93.8838
118.794
134.991
141.264
136.964
122.277
98.3388
67.0963
30.883
-8.15107
-48.101
-87.4601
-125.173
-160.639
-193.762
-224.69
-253.73
-281.26
-307.624
-335.493
5.32356
5.96658
6.51724
6.85484
7.03241
7.109
7.08956
6.96384
6.70026
6.25152
5.54336
4.4628
2.85489
0.51189
-2.81738
-7.40428