/*--------------------------------*- C++ -*----------------------------------*\
  =========                 |
  \\      /  F ield         | OpenFOAM: The Open Source CFD Toolbox
   \\    /   O peration     | Website:  https://openfoam.org
    \\  /    A nd           | Version:  10
     \\/     M anipulation  |
\*---------------------------------------------------------------------------*/
FoamFile
{
    format      ascii;
    class       surfaceScalarField;
    location    "5";
    object      phi;
}
// * * * * * * * * * * * * * * * * * * * * * * * * * * * * * * * * * * * * * //

dimensions      [0 3 -1 0 0 0 0];

internalField   nonuniform List<scalar> 
75600
(
0.00991787
-1236.68
1236.69
0.00565556
-1023.87
1023.88
0.00210559
-847.71
847.714
-0.00084793
-701.886
701.889
-0.00329802
-581.184
581.186
-0.00533021
-481.283
481.285
-0.00701396
-398.608
398.61
-0.00841053
-330.2
330.201
-0.00956647
-273.61
273.611
-0.0105238
-226.813
226.814
-0.0113175
-188.133
188.134
-0.0119731
-156.186
156.186
-0.0125164
-129.828
129.828
-0.0129652
-108.115
108.116
-0.0133371
-90.2716
90.272
-0.0136435
-75.6577
75.658
-0.0138991
-63.7506
63.7508
-0.0141079
-54.124
54.1242
-0.0142805
-46.4334
46.4336
-0.0144206
-40.4036
40.4038
-0.01453
-35.8186
35.8187
-0.0146115
-32.5137
32.5138
-0.0146558
-30.3697
30.3697
-0.0146759
-29.3076
29.3076
-0.0146537
-29.178
29.178
-0.0146011
-23.2514
23.2514
-0.0145154
-18.5165
18.5164
-0.0144119
-14.7359
14.7358
-0.0142934
-11.7204
11.7203
-0.0141616
-9.31786
9.31772
-0.0140166
-7.40563
7.40548
-0.0138578
-5.88503
5.88487
-0.0136855
-4.67673
4.67655
-0.0135001
-3.71711
3.71692
-0.0133036
-2.95537
2.95517
-0.013098
-2.35105
2.35085
-0.012887
-1.87194
1.87172
-0.012674
-1.49244
1.49222
-0.0124624
-1.19224
1.19202
-0.012256
-0.955294
0.955086
-0.0120573
-0.768926
0.768726
-0.0118693
-0.623155
0.622966
-0.0116929
-0.510182
0.510005
-0.0115284
-0.423957
0.423792
-0.0113768
-0.359864
0.359711
-0.0112423
-0.314466
0.314331
-0.0111451
-0.285331
0.285233
-0.270702
0.27082
-0.0112636
0.0348601
-1236.67
0.0259484
-1023.87
0.0185413
-847.703
0.0123915
-701.88
0.00729007
-581.179
0.00305949
-481.279
-0.000447563
-398.604
-0.00335076
-330.197
-0.00575982
-273.608
-0.00775569
-226.811
-0.00941119
-188.131
-0.0107832
-156.184
-0.0119228
-129.827
-0.0128687
-108.114
-0.0136574
-90.2708
-0.0143143
-75.657
-0.0148671
-63.75
-0.0153303
-54.1235
-0.0157232
-46.433
-0.016058
-40.4033
-0.0163428
-35.8183
-0.0165889
-32.5134
-0.0167936
-30.3695
-0.0169615
-29.3074
-0.0170457
-29.178
-0.0170429
-23.2514
-0.0169577
-18.5166
-0.0168192
-14.7361
-0.0166373
-11.7206
-0.0164195
-9.31808
-0.0161703
-7.40588
-0.0158908
-5.88531
-0.0155829
-4.67704
-0.0152481
-3.71744
-0.0148902
-2.95573
-0.0145133
-2.35143
-0.0141239
-1.87232
-0.0137283
-1.49283
-0.0133328
-1.19263
-0.0129438
-0.955682
-0.0125668
-0.769303
-0.0122065
-0.623515
-0.0118662
-0.510522
-0.0115477
-0.424276
-0.0112542
-0.360157
-0.0109937
-0.314727
-0.0107854
-0.28554
-0.270569
-0.0109181
0.0593397
-1236.65
0.0452697
-1023.85
0.033592
-847.691
0.0239043
-701.87
0.0158773
-581.171
0.00922104
-481.272
0.0037073
-398.599
-0.000863968
-330.192
-0.00465128
-273.604
-0.00779205
-226.808
-0.0103985
-188.129
-0.012561
-156.182
-0.0143595
-129.825
-0.0158559
-108.113
-0.0171063
-90.2696
-0.0181527
-75.656
-0.0190369
-63.7491
-0.0197843
-54.1227
-0.0204249
-46.4324
-0.0209787
-40.4028
-0.0214601
-35.8178
-0.0218856
-32.513
-0.022252
-30.3692
-0.022572
-29.307
-0.022789
-29.1778
-0.0228516
-23.2513
-0.0227699
-18.5167
-0.0225852
-14.7363
-0.0223155
-11.7209
-0.0219757
-9.31843
-0.0215752
-7.40628
-0.0211186
-5.88577
-0.0206107
-4.67755
-0.0200554
-3.718
-0.0194599
-2.95633
-0.0188319
-2.35206
-0.0181829
-1.87297
-0.0175251
-1.49349
-0.0168699
-1.19329
-0.0162296
-0.956323
-0.015615
-0.769918
-0.0150345
-0.624095
-0.0144946
-0.511062
-0.0139991
-0.424771
-0.0135511
-0.360606
-0.0131559
-0.315123
-0.0128487
-0.285847
-0.27071
-0.0127079
0.0839878
-1236.63
0.0646848
-1023.83
0.0486866
-847.675
0.0354302
-701.857
0.0244484
-581.16
0.0153517
-481.263
0.00781514
-398.591
0.00157435
-330.186
-0.00360176
-273.599
-0.00789241
-226.803
-0.0114539
-188.125
-0.014411
-156.179
-0.0168723
-129.822
-0.0189237
-108.111
-0.0206412
-90.2679
-0.0220836
-75.6546
-0.0233067
-63.7479
-0.0243481
-54.1217
-0.025248
-46.4315
-0.0260349
-40.402
-0.0267311
-35.8171
-0.0273587
-32.5123
-0.0279204
-30.3686
-0.0284241
-29.3065
-0.0287995
-29.1774
-0.0289419
-23.2512
-0.0288671
-18.5168
-0.0286303
-14.7365
-0.0282615
-11.7212
-0.0277846
-9.3189
-0.0272171
-7.40685
-0.0265681
-5.88642
-0.0258464
-4.67827
-0.025059
-3.71878
-0.0242174
-2.95717
-0.023334
-2.35294
-0.0224248
-1.87388
-0.0215074
-1.49441
-0.0205982
-1.1942
-0.0197138
-0.957207
-0.0188697
-0.770762
-0.018077
-0.624888
-0.0173449
-0.511795
-0.0166775
-0.425439
-0.0160759
-0.361208
-0.015542
-0.315657
-0.0150932
-0.286296
-0.271154
-0.0146491
0.109083
-1236.6
0.0846141
-1023.81
0.0643557
-847.655
0.0475863
-701.84
0.0337068
-581.146
0.0222153
-481.251
0.0127014
-398.582
0.00482185
-330.178
-0.00170755
-273.592
-0.00712092
-226.798
-0.0116148
-188.121
-0.0153481
-156.175
-0.0184575
-129.819
-0.0210529
-108.108
-0.0232299
-90.2657
-0.0250641
-75.6527
-0.026625
-63.7464
-0.0279629
-54.1204
-0.0291277
-46.4303
-0.0301576
-40.4009
-0.0310829
-35.8162
-0.0319319
-32.5115
-0.0327112
-30.3679
-0.0334333
-29.3058
-0.0340168
-29.1769
-0.0342798
-23.2509
-0.0342476
-18.5169
-0.0339892
-14.7368
-0.0335455
-11.7217
-0.0329499
-9.31951
-0.0322269
-7.40758
-0.0313911
-5.88726
-0.0304554
-4.67921
-0.0294311
-3.71981
-0.0283347
-2.95827
-0.027184
-2.35409
-0.0260014
-1.87507
-0.0248116
-1.4956
-0.0236374
-1.19537
-0.0225018
-0.958343
-0.0214252
-0.771839
-0.0204215
-0.625892
-0.0195
-0.512717
-0.0186615
-0.426278
-0.0178995
-0.36197
-0.0172029
-0.316354
-0.0165485
-0.28695
-0.271906
-0.0157968
0.134781
-1236.57
0.105245
-1023.78
0.0808235
-847.631
0.0606248
-701.82
0.0439224
-581.129
0.0301034
-481.237
0.0186708
-398.57
0.00920688
-330.169
0.00136603
-273.584
-0.00513349
-226.791
-0.010529
-188.115
-0.0150129
-156.171
-0.0187502
-129.815
-0.0218735
-108.105
-0.0244982
-90.2631
-0.0267159
-75.6505
-0.0286105
-63.7445
-0.0302437
-54.1187
-0.0316766
-46.4289
-0.0329562
-40.3997
-0.0341204
-35.815
-0.0352056
-32.5104
-0.0362229
-30.3669
-0.0371851
-29.3048
-0.0380009
-29.1761
-0.0383995
-23.2505
-0.0384167
-18.5169
-0.0381359
-14.7371
-0.0376122
-11.7222
-0.0368899
-9.32023
-0.0360026
-7.40846
-0.0349715
-5.88829
-0.0338144
-4.68036
-0.0325477
-3.72108
-0.0311936
-2.95962
-0.0297758
-2.35551
-0.0283231
-1.87652
-0.0268669
-1.49705
-0.0254362
-1.1968
-0.0240592
-0.95972
-0.0227597
-0.773139
-0.021553
-0.627099
-0.0204471
-0.513823
-0.0194382
-0.427287
-0.0185124
-0.362896
-0.017641
-0.317225
-0.0167685
-0.287823
-0.272927
-0.0157481
0.160999
-1236.52
0.126331
-1023.74
0.0977001
-847.602
0.0740501
-701.797
0.0545103
-581.109
0.0383609
-481.221
0.0250067
-398.557
0.0139598
-330.158
0.0048118
-273.575
-0.00276975
-226.784
-0.00906317
-188.109
-0.0142953
-156.166
-0.0186593
-129.811
-0.0223108
-108.102
-0.0253853
-90.26
-0.027991
-75.6479
-0.0302261
-63.7422
-0.0321644
-54.1168
-0.0338782
-46.4272
-0.035424
-40.3981
-0.0368489
-35.8136
-0.0381965
-32.509
-0.0394839
-30.3656
-0.0407261
-29.3036
-0.0418211
-29.175
-0.0423864
-23.25
-0.0424711
-18.5168
-0.0421742
-14.7374
-0.0415656
-11.7228
-0.0407025
-9.3211
-0.0396277
-7.40954
-0.0383701
-5.88955
-0.0369541
-4.68178
-0.035402
-3.72263
-0.0337438
-2.96128
-0.032011
-2.35725
-0.0302411
-1.87829
-0.0284744
-1.49882
-0.0267483
-1.19853
-0.0250974
-0.961372
-0.0235492
-0.774688
-0.0221203
-0.628529
-0.0208158
-0.515128
-0.0196256
-0.428478
-0.0185273
-0.363994
-0.0174804
-0.318272
-0.0164246
-0.288879
-0.274123
-0.0152284
0.187794
-1236.48
0.14789
-1023.7
0.114978
-847.569
0.0878257
-701.769
0.065419
-581.087
0.0469159
-481.203
0.0316298
-398.542
0.0189942
-330.145
0.00853661
-273.565
-0.000127951
-226.775
-0.00732001
-188.102
-0.013301
-156.16
-0.0182928
-129.806
-0.0224757
-108.097
-0.0260047
-90.2565
-0.0290052
-75.6449
-0.03159
-63.7397
-0.0338461
-54.1145
-0.0358569
-46.4252
-0.0376894
-40.3963
-0.0394001
-35.8119
-0.0410405
-32.5074
-0.042635
-30.364
-0.0441998
-29.302
-0.0456202
-29.1736
-0.0463796
-23.2492
-0.0465422
-18.5166
-0.0462248
-14.7377
-0.0455158
-11.7235
-0.0444875
-9.32213
-0.043195
-7.41083
-0.0416766
-5.89106
-0.0399655
-4.68349
-0.0380918
-3.72451
-0.0360951
-2.96328
-0.0340164
-2.35932
-0.0319041
-1.8804
-0.0298085
-1.50091
-0.0277755
-1.20056
-0.0258459
-0.963301
-0.0240499
-0.776484
-0.0224039
-0.630175
-0.0209071
-0.516625
-0.0195461
-0.429839
-0.0182863
-0.365254
-0.0170853
-0.319474
-0.0158726
-0.290092
-0.27547
-0.0145264
0.215266
-1236.42
0.170002
-1023.66
0.132722
-847.532
0.102011
-701.739
0.0767
-581.062
0.055824
-481.182
0.0385959
-398.525
0.0243641
-330.131
0.0125949
-273.553
0.00284717
-226.766
-0.00524304
-188.094
-0.0119727
-156.153
-0.0175939
-129.8
-0.0223107
-108.093
-0.0262991
-90.2525
-0.0297021
-75.6415
-0.0326479
-63.7367
-0.0352363
-54.1119
-0.0375633
-46.4228
-0.0397066
-40.3941
-0.0417333
-35.8098
-0.0437043
-32.5054
-0.0456511
-30.3621
-0.0475922
-29.3001
-0.0494
-29.1718
-0.0503935
-23.2482
-0.050655
-18.5164
-0.0503219
-14.738
-0.0495032
-11.7243
-0.0482897
-9.32335
-0.0467505
-7.41238
-0.0449359
-5.89288
-0.0428902
-4.68554
-0.0406537
-3.72675
-0.0382783
-2.96565
-0.0358176
-2.36178
-0.0333331
-1.88288
-0.0308866
-1.50336
-0.0285339
-1.20291
-0.0263215
-0.965514
-0.0242813
-0.778525
-0.0224272
-0.63203
-0.0207529
-0.518299
-0.0192368
-0.431355
-0.0178426
-0.366649
-0.0165191
-0.320797
-0.0152024
-0.291409
-0.276898
-0.0137753
0.243518
-1236.36
0.192759
-1023.61
0.151025
-847.49
0.116694
-701.704
0.0884411
-581.033
0.0651717
-481.159
0.0459899
-398.505
0.030162
-330.115
0.0170797
-273.54
0.00625134
-226.755
-0.00273392
-188.085
-0.0102102
-156.146
-0.0164599
-129.794
-0.0217126
-108.087
-0.0261653
-90.248
-0.0299788
-75.6377
-0.0332971
-63.7334
-0.0362342
-54.109
-0.0388986
-46.4202
-0.0413804
-40.3917
-0.0437575
-35.8075
-0.0461012
-32.5031
-0.0484519
-30.3597
-0.0508304
-29.2977
-0.0530947
-29.1695
-0.0543661
-23.2469
-0.0547486
-18.516
-0.054403
-14.7384
-0.0534629
-11.7253
-0.052041
-9.32477
-0.050224
-7.41419
-0.048077
-5.89503
-0.0456584
-4.68796
-0.0430225
-3.72938
-0.0402355
-2.96844
-0.0373674
-2.36465
-0.0344939
-1.88576
-0.0316905
-1.50616
-0.0290215
-1.20558
-0.0265379
-0.967998
-0.0242716
-0.780792
-0.0222292
-0.634072
-0.0204016
-0.520127
-0.0187555
-0.433001
-0.0172563
-0.368148
-0.0158425
-0.322211
-0.0144582
-0.292795
-0.278374
-0.0129823
0.272655
-1236.29
0.216258
-1023.55
0.169963
-847.444
0.13195
-701.666
0.100719
-581.002
0.0750353
-481.133
0.0538924
-398.484
0.0364656
-330.098
0.0220767
-273.526
0.0101731
-226.743
0.000297972
-188.075
-0.0079212
-156.137
-0.0147978
-129.787
-0.0205869
-108.082
-0.025508
-90.2431
-0.0297403
-75.6335
-0.0334439
-63.7297
-0.036748
-54.1057
-0.0397744
-46.4172
-0.042626
-40.3888
-0.0453934
-35.8047
-0.0481592
-32.5003
-0.0509738
-30.3569
-0.0538616
-29.2948
-0.0566642
-29.1667
-0.0582673
-23.2453
-0.0587997
-18.5155
-0.0584494
-14.7387
-0.0573788
-11.7264
-0.0557266
-9.32643
-0.0536009
-7.41632
-0.051085
-5.89755
-0.0482555
-4.69079
-0.0451843
-3.73245
-0.0419554
-2.97167
-0.0386582
-2.36795
-0.0353852
-1.88903
-0.0322251
-1.50932
-0.0292501
-1.20856
-0.0265134
-0.970736
-0.024043
-0.783263
-0.0218389
-0.636277
-0.0198821
-0.522084
-0.0181401
-0.434744
-0.0165626
-0.369726
-0.0150997
-0.323675
-0.0136824
-0.294212
-0.279854
-0.0122023
0.30279
-1236.21
0.240587
-1023.49
0.189626
-847.393
0.147863
-701.625
0.113614
-580.968
0.0854984
-481.105
0.06239
-398.461
0.0433686
-330.079
0.0276791
-273.51
0.0147092
-226.73
0.00395231
-188.064
-0.00500264
-156.128
-0.012502
-129.78
-0.0188276
-108.075
-0.0242207
-90.2377
-0.0288804
-75.6288
-0.0329838
-63.7256
-0.036675
-54.102
-0.0400909
-46.4137
-0.0433481
-40.3856
-0.0465511
-35.8015
-0.0497953
-32.4971
-0.0531428
-30.3536
-0.0566219
-29.2913
-0.0600573
-29.1633
-0.0620539
-23.2433
-0.0627701
-18.5148
-0.0624252
-14.739
-0.0612153
-11.7276
-0.0593104
-9.32834
-0.0568444
-7.41878
-0.0539235
-5.90046
-0.0506473
-4.69406
-0.0471094
-3.73599
-0.0434154
-2.97536
-0.0396772
-2.37169
-0.0360052
-1.8927
-0.0325
-1.51283
-0.0292398
-1.21182
-0.0262771
-0.973699
-0.0236303
-0.78591
-0.021295
-0.638612
-0.0192389
-0.52414
-0.0174295
-0.436553
-0.0158065
-0.371349
-0.0143199
-0.325162
-0.0128974
-0.295635
-0.281314
-0.0114381
0.33403
-1236.13
0.265848
-1023.42
0.210106
-847.337
0.164522
-701.579
0.127217
-580.931
0.0966546
-481.074
0.0715778
-398.436
0.0509692
-330.058
0.0339908
-273.493
0.0199672
-226.716
0.00834109
-188.052
-0.00134032
-156.119
-0.00945613
-129.772
-0.016316
-108.068
-0.0221844
-90.2319
-0.0272803
-75.6237
-0.0317985
-63.7211
-0.0358996
-54.0979
-0.0397359
-46.4099
-0.0434392
-40.3819
-0.0471295
-35.7978
-0.0509163
-32.4933
-0.0548757
-30.3496
-0.0590409
-29.2872
-0.0632179
-29.1592
-0.0656803
-23.2409
-0.0666212
-18.5139
-0.0662961
-14.7394
-0.0649405
-11.7289
-0.0627619
-9.33052
-0.0599253
-7.42163
-0.0565655
-5.90383
-0.0528099
-4.69782
-0.0487795
-3.74002
-0.0446051
-2.97954
-0.0404231
-2.37587
-0.0363622
-1.89676
-0.0325327
-1.51666
-0.0290154
-1.21534
-0.0258573
-0.976858
-0.0230669
-0.788701
-0.0206282
-0.641051
-0.0185081
-0.526261
-0.0166548
-0.438407
-0.0150193
-0.372985
-0.0135312
-0.32665
-0.0121326
-0.297034
-0.282729
-0.0107186
0.366497
-1236.04
0.29215
-1023.35
0.2315
-847.276
0.182022
-701.529
0.141628
-580.89
0.108604
-481.041
0.0815659
-398.409
0.0593804
-330.036
0.0411315
-273.475
0.0260726
-226.701
0.0135936
-188.04
0.00319948
-156.108
-0.00552383
-129.763
-0.0129139
-108.061
-0.0192597
-90.2255
-0.0248006
-75.6182
-0.0297498
-63.7162
-0.0342857
-54.0934
-0.0385769
-46.4056
-0.0427721
-40.3777
-0.0470081
-35.7936
-0.051411
-32.4889
-0.0560719
-30.345
-0.0610306
-29.2822
-0.0660742
-29.1541
-0.0690859
-23.2379
-0.0702998
-18.5126
-0.0700134
-14.7397
-0.0685083
-11.7304
-0.0660365
-9.33299
-0.0628011
-7.42486
-0.0589713
-5.90765
-0.0547093
-4.70208
-0.0501678
-3.74456
-0.0455073
-2.9842
-0.0408894
-2.38049
-0.0364599
-1.90119
-0.0323355
-1.52078
-0.0285958
-1.21908
-0.0252757
-0.980179
-0.0223768
-0.7916
-0.0198658
-0.643562
-0.0177091
-0.528418
-0.0158413
-0.440275
-0.0142109
-0.374617
-0.0127456
-0.328116
-0.0113866
-0.298395
-0.284088
-0.0100282
0.400316
-1235.94
0.3196
-1023.27
0.25392
-847.211
0.200476
-701.476
0.156956
-580.847
0.121469
-481.006
0.0924758
-398.38
0.0687384
-330.012
0.0492419
-273.455
0.0331721
-226.685
0.0198629
-188.027
0.00877451
-156.097
-0.000543422
-129.754
-0.00845737
-108.053
-0.0152809
-90.2187
-0.0212752
-75.6122
-0.0266733
-63.7108
-0.0316711
-54.0884
-0.0364558
-46.4008
-0.041194
-40.3729
-0.0460415
-35.7887
-0.0511428
-32.4838
-0.0566071
-30.3395
-0.0624822
-29.2763
-0.0685342
-29.1481
-0.0721914
-23.2342
-0.0737351
-18.5111
-0.0735117
-14.7399
-0.0718572
-11.7321
-0.0690759
-9.33578
-0.0654167
-7.42852
-0.0610912
-5.91198
-0.0563024
-4.70687
-0.0512409
-3.74963
-0.046099
-2.98934
-0.041064
-2.38552
-0.0362955
-1.90596
-0.0319127
-1.52517
-0.0279881
-1.223
-0.0245451
-0.983622
-0.0215676
-0.794578
-0.0190224
-0.646109
-0.0168489
-0.530592
-0.0149975
-0.442128
-0.0133843
-0.37623
-0.0119636
-0.329538
-0.0106509
-0.299707
-0.285385
-0.00935432
0.435606
-1235.83
0.348306
-1023.18
0.277454
-847.14
0.219967
-701.419
0.173287
-580.8
0.135332
-480.968
0.104404
-398.349
0.079137
-329.987
0.0584233
-273.434
0.041373
-226.668
0.0272603
-188.012
0.0154995
-156.085
0.00560328
-129.744
-0.00282576
-108.045
-0.0101272
-90.2114
-0.0165837
-75.6057
-0.0224493
-63.7049
-0.0279395
-54.0829
-0.0332609
-46.3955
-0.0385998
-40.3676
-0.0441331
-35.7832
-0.0500262
-32.4779
-0.0564088
-30.3331
-0.0633388
-29.2694
-0.070561
-29.1408
-0.0749737
-23.2298
-0.0769138
-18.5092
-0.0767846
-14.74
-0.0749851
-11.7339
-0.0718821
-9.33889
-0.0677791
-7.43262
-0.0629383
-5.91682
-0.0576111
-4.71219
-0.0520307
-3.75521
-0.0464233
-2.99495
-0.0410003
-2.39094
-0.0359301
-1.91103
-0.0313303
-1.52977
-0.0272617
-1.22707
-0.0237328
-0.987151
-0.0207127
-0.797598
-0.0181593
-0.648663
-0.0160002
-0.532752
-0.0141771
-0.443952
-0.012606
-0.377802
-0.0112299
-0.330915
-0.00997017
-0.300967
-0.286619
-0.0087363
0.472504
-1235.72
0.378386
-1023.08
0.30222
-847.064
0.240613
-701.357
0.190753
-580.75
0.150334
-480.927
0.117492
-398.316
0.0907331
-329.96
0.0688411
-273.412
0.0508484
-226.65
0.035967
-187.998
0.0235621
-156.073
0.0131081
-129.733
0.00417557
-108.036
-0.00360082
-90.2036
-0.0105283
-75.5988
-0.0168816
-63.6986
-0.0228971
-54.0769
-0.0288026
-46.3896
-0.0348064
-40.3616
-0.0411084
-35.7769
-0.0478979
-32.4711
-0.055328
-30.3257
-0.0634695
-29.2613
-0.0720442
-29.1323
-0.077338
-23.2245
-0.0797522
-18.5068
-0.0797558
-14.74
-0.0778221
-11.7358
-0.0743907
-9.34232
-0.0698304
-7.43719
-0.0644635
-5.92219
-0.0585966
-4.71806
-0.05251
-3.7613
-0.0464643
-3.00099
-0.0406911
-2.39672
-0.035363
-1.91636
-0.0305903
-1.53454
-0.0264194
-1.23124
-0.0228391
-0.990732
-0.0198114
-0.800627
-0.0172727
-0.651202
-0.0151522
-0.534873
-0.0133707
-0.445734
-0.0118562
-0.379318
-0.0105305
-0.332241
-0.00932947
-0.302169
-0.287789
-0.00816001
0.511153
-1235.59
0.40997
-1022.98
0.328341
-846.982
0.262543
-701.291
0.209475
-580.697
0.166606
-480.885
0.131887
-398.282
0.103679
-329.932
0.0806576
-273.389
0.0617696
-226.631
0.0461613
-187.982
0.0331473
-156.06
0.0221608
-129.722
0.0127406
-108.026
0.00449297
-90.1954
-0.00291307
-75.5914
-0.00977557
-63.6917
-0.0163528
-54.0703
-0.0228951
-46.3831
-0.0296347
-40.3548
-0.0367981
-35.7697
-0.0446008
-32.4633
-0.0532234
-30.3171
-0.0627513
-29.2517
-0.0728845
-29.1222
-0.0792019
-23.2182
-0.08218
-18.5038
-0.0823648
-14.7398
-0.080315
-11.7379
-0.0765561
-9.34608
-0.0715336
-7.44221
-0.06564
-5.92808
-0.0592439
-4.72445
-0.0526758
-3.76786
-0.04623
-3.00744
-0.0401525
-2.4028
-0.034615
-1.9219
-0.0297166
-1.53944
-0.0254822
-1.23548
-0.0218908
-0.994324
-0.0188799
-0.803638
-0.016385
-0.653698
-0.0143176
-0.536942
-0.0125966
-0.447455
-0.0111448
-0.38077
-0.00988113
-0.333505
-0.00874182
-0.303309
-0.288893
-0.0076381
0.551692
-1235.46
0.443192
-1022.87
0.355947
-846.895
0.285881
-701.221
0.22959
-580.641
0.184293
-480.839
0.147742
-398.245
0.118141
-329.902
0.0940488
-273.365
0.0743219
-226.611
0.0580371
-187.966
0.0444551
-156.046
0.0329677
-129.711
0.0230789
-108.016
0.0143667
-90.1867
0.00647403
-75.5835
-0.000919844
-63.6843
-0.00809794
-54.0631
-0.0153349
-46.3758
-0.0228896
-40.3473
-0.0310173
-35.7616
-0.0399635
-32.4543
-0.0499397
-30.3071
-0.0610502
-29.2406
-0.0729722
-29.1102
-0.0804746
-23.2107
-0.0841207
-18.5002
-0.0845452
-14.7394
-0.082407
-11.74
-0.0783309
-9.35017
-0.0728517
-7.44769
-0.0664433
-5.93449
-0.0595416
-4.73136
-0.0525293
-3.77488
-0.0457313
-3.01424
-0.0394023
-2.40913
-0.0337072
-1.9276
-0.0287284
-1.54442
-0.0244735
-1.23974
-0.0208964
-0.997901
-0.0179359
-0.8066
-0.0154933
-0.65614
-0.0135005
-0.538936
-0.0118403
-0.449115
-0.0104669
-0.382145
-0.00926774
-0.334704
-0.00820525
-0.304372
-0.289911
-0.0071877
0.594284
-1235.31
0.478189
-1022.76
0.385166
-846.802
0.310764
-701.147
0.251244
-580.581
0.203549
-480.792
0.16522
-398.207
0.134295
-329.871
0.109203
-273.34
0.0887047
-226.59
0.0718027
-187.949
0.0577023
-156.032
0.0457507
-129.699
0.035417
-108.006
0.0262489
-90.1775
0.0178635
-75.5751
0.00991369
-63.6764
0.00209203
-54.0553
-0.00590355
-46.3678
-0.0143601
-40.3388
-0.0235659
-35.7524
-0.0337997
-32.4441
-0.0453089
-30.2956
-0.0582201
-29.2277
-0.0721881
-29.0963
-0.081057
-23.2018
-0.0854904
-18.4957
-0.0862263
-14.7387
-0.0840386
-11.7422
-0.0796671
-9.35454
-0.0737491
-7.4536
-0.0668518
-5.94139
-0.0594815
-4.73872
-0.0520747
-3.78228
-0.0449815
-3.02133
-0.0384586
-2.41565
-0.0326598
-1.9334
-0.0276475
-1.54944
-0.0234085
-1.24397
-0.0198774
-1.00143
-0.0169834
-0.809494
-0.0146134
-0.658511
-0.0126888
-0.540861
-0.0110977
-0.450707
-0.00977659
-0.383466
-0.00863018
-0.33585
-0.00761072
-0.305393
-0.290898
-0.00662536
0.639086
-1235.16
0.515109
-1022.63
0.416148
-846.703
0.33734
-701.068
0.274586
-580.519
0.224539
-480.741
0.184503
-398.167
0.152331
-329.839
0.126324
-273.314
0.105131
-226.569
0.0876818
-187.931
0.0731203
-156.018
0.060748
-129.687
0.0499977
-107.995
0.0403854
-90.1679
0.0315007
-75.5662
0.0229699
-63.6678
0.0144583
-54.0468
0.00563492
-46.359
-0.00381974
-40.3294
-0.0142289
-35.742
-0.0259099
-32.4324
-0.0391499
-30.2823
-0.054103
-29.2128
-0.070403
-29.08
-0.0808422
-23.1914
-0.0862
-18.4904
-0.0873332
-14.7375
-0.0851482
-11.7444
-0.080517
-9.35917
-0.0741932
-7.45993
-0.0668473
-5.94874
-0.0590606
-4.74651
-0.0513202
-3.79003
-0.0439965
-3.02866
-0.0373415
-2.42231
-0.0314939
-1.93925
-0.0264939
-1.55444
-0.0223028
-1.24817
-0.0188503
-1.00489
-0.016036
-0.812309
-0.0137591
-0.660789
-0.0119125
-0.542708
-0.010411
-0.452209
-0.00916098
-0.384716
-0.00810347
-0.336908
-0.00716361
-0.306331
-0.291793
-0.00626782
0.686268
-1234.99
0.554109
-1022.5
0.449038
-846.598
0.365759
-700.985
0.299783
-580.453
0.247436
-480.689
0.205773
-398.125
0.172454
-329.806
0.145624
-273.287
0.123829
-226.548
0.105911
-187.913
0.0909547
-156.003
0.0782123
-129.674
0.0670782
-107.984
0.0570366
-90.1578
0.0476473
-75.5568
0.0385087
-63.6587
0.0292572
-54.0375
0.0195297
-46.3493
0.00897246
-40.3188
-0.00277792
-35.7302
-0.0160813
-32.4191
-0.0312701
-30.2672
-0.0485311
-29.1955
-0.0674793
-29.061
-0.079716
-23.1791
-0.0861542
-18.4839
-0.0877873
-14.7359
-0.0856733
-11.7465
-0.0808333
-9.36401
-0.0741533
-7.4666
-0.0664153
-5.95647
-0.0582784
-4.75465
-0.0502762
-3.79803
-0.0427931
-3.03614
-0.0360708
-2.42903
-0.0302304
-1.94509
-0.0252818
-1.55938
-0.0211793
-1.25227
-0.0178192
-1.00825
-0.0151076
-0.815021
-0.0129231
-0.662974
-0.011159
-0.544472
-0.0097298
-0.453639
-0.00853493
-0.385911
-0.00752646
-0.337917
-0.00662463
-0.307236
-0.292668
-0.00575138
0.736014
-1234.82
0.595352
-1022.36
0.484001
-846.486
0.396187
-700.897
0.327002
-580.383
0.272427
-480.635
0.229232
-398.082
0.194873
-329.771
0.16733
-273.26
0.145035
-226.525
0.12674
-187.895
0.111464
-155.988
0.0984094
-129.661
0.08693
-107.973
0.0764764
-90.1474
0.0665782
-75.547
0.0568039
-63.6489
0.0467583
-54.0275
0.036045
-46.3386
0.0242706
-40.307
0.0110284
-35.717
-0.00408941
-32.404
-0.0214659
-30.2498
-0.0413265
-29.1757
-0.0632708
-29.0391
-0.0775579
-23.1649
-0.0852536
-18.4763
-0.0875079
-14.7337
-0.0855511
-11.7485
-0.080572
-9.36899
-0.0736035
-7.47357
-0.0655472
-5.96453
-0.0571399
-4.76305
-0.0489575
-3.80621
-0.0413906
-3.04371
-0.0346686
-2.43576
-0.0288872
-1.95087
-0.0240387
-1.56423
-0.0200415
-1.25627
-0.0168107
-1.01148
-0.0141996
-0.817632
-0.0121371
-0.665038
-0.0104539
-0.546155
-0.00913584
-0.454959
-0.00800883
-0.387037
-0.0071092
-0.338818
-0.00629328
-0.30805
-0.293444
-0.00551543
0.788512
-1234.63
0.639012
-1022.21
0.521199
-846.368
0.428793
-700.804
0.356429
-580.311
0.299701
-480.578
0.255087
-398.037
0.219808
-329.736
0.191679
-273.232
0.168999
-226.503
0.15043
-187.877
0.134919
-155.972
0.121617
-129.647
0.109836
-107.961
0.0989914
-90.1366
0.0885806
-75.5365
0.0781408
-63.6385
0.0672436
-54.0166
0.0554547
-46.3268
0.0423395
-40.2939
0.0274416
-35.7021
0.0103007
-32.3869
-0.00952418
-30.2299
-0.0323033
-29.1529
-0.0576246
-29.0138
-0.0742415
-23.1482
-0.0833947
-18.4671
-0.0864127
-14.7306
-0.0847197
-11.7502
-0.0796913
-9.37402
-0.0725211
-7.48074
-0.064237
-5.97282
-0.0556522
-4.77164
-0.0473791
-3.81448
-0.0398091
-3.05128
-0.0331551
-2.44241
-0.0274879
-1.95654
-0.0227753
-1.56895
-0.0189161
-1.26013
-0.0158198
-1.01458
-0.0133291
-0.820124
-0.0113647
-0.667003
-0.00977688
-0.547744
-0.00852111
-0.456215
-0.00746625
-0.388094
-0.00660279
-0.339681
-0.00582551
-0.308828
-0.294187
-0.00508327
0.843958
-1234.43
0.685272
-1022.05
0.560814
-846.244
0.463759
-700.707
0.388246
-580.236
0.329461
-480.519
0.283553
-397.991
0.247493
-329.7
0.218915
-273.203
0.19598
-226.48
0.177249
-187.858
0.161598
-155.956
0.148121
-129.634
0.136087
-107.949
0.124876
-90.1254
0.11395
-75.5256
0.102814
-63.6274
0.0910027
-54.0048
0.0780426
-46.3138
0.0634524
-40.2793
0.046722
-35.6853
0.0273315
-32.3675
0.00477535
-30.2074
-0.0212688
-29.1268
-0.0503822
-28.9847
-0.0696364
-23.129
-0.0804719
-18.4563
-0.0844195
-14.7267
-0.08312
-11.7515
-0.0781541
-9.37899
-0.0708899
-7.48801
-0.0624855
-5.98122
-0.0538281
-4.7803
-0.0455603
-3.82276
-0.0380706
-3.05877
-0.0315533
-2.44893
-0.0260542
-1.96204
-0.0215112
-1.57349
-0.0178243
-1.26381
-0.0148649
-1.01754
-0.0125107
-0.822479
-0.0106365
-0.668877
-0.00914949
-0.549233
-0.00795195
-0.457412
-0.00698274
-0.389064
-0.00617661
-0.340486
-0.00548103
-0.309524
-0.294823
-0.00484566
0.90257
-1234.22
0.734324
-1021.88
0.603029
-846.113
0.501271
-700.605
0.422653
-580.157
0.361912
-480.458
0.314848
-397.944
0.278164
-329.663
0.249288
-273.174
0.226239
-226.457
0.207472
-187.839
0.191785
-155.941
0.178213
-129.62
0.165981
-107.937
0.154429
-90.1138
0.142986
-75.5142
0.131121
-63.6155
0.11833
-53.992
0.104096
-46.2996
0.087887
-40.2631
0.0691343
-35.6666
0.0472506
-32.3456
0.021658
-30.1818
-0.00802613
-29.0972
-0.0413821
-28.9513
-0.0636094
-23.1068
-0.076378
-18.4435
-0.0814463
-14.7216
-0.0806947
-11.7522
-0.0759271
-9.38375
-0.068697
-7.49523
-0.0602964
-5.98963
-0.0516812
-4.78891
-0.0435208
-3.83092
-0.0361959
-3.0661
-0.0298853
-2.45524
-0.0245992
-1.96733
-0.0202735
-1.57782
-0.0167706
-1.26732
-0.0139773
-1.02033
-0.0117522
-0.824706
-0.00997306
-0.670657
-0.00855813
-0.550649
-0.00738732
-0.458582
-0.00643499
-0.390018
-0.00559435
-0.341326
-0.00484121
-0.310277
-0.29554
-0.00412483
0.964578
-1233.99
0.786397
-1021.71
0.648073
-845.974
0.541567
-700.499
0.459898
-580.075
0.397327
-480.396
0.349263
-397.896
0.31212
-329.626
0.283115
-273.145
0.260108
-226.434
0.241443
-187.82
0.225833
-155.925
0.212255
-129.607
0.199885
-107.924
0.188024
-90.1019
0.176063
-75.5022
0.163435
-63.6029
0.149596
-53.9781
0.133978
-46.284
0.115998
-40.2451
0.0950189
-35.6456
0.0703825
-32.321
0.0414282
-30.1528
0.00770079
-29.0634
-0.0303834
-28.9132
-0.0559492
-23.0812
-0.0709288
-18.4286
-0.0773362
-14.7152
-0.0773135
-11.7523
-0.0729043
-9.38816
-0.0658581
-7.50228
-0.0575994
-5.99789
-0.0491513
-4.79736
-0.0412028
-3.83887
-0.0341291
-3.07318
-0.028086
-2.46129
-0.023072
-1.97234
-0.0189786
-1.58191
-0.0157083
-1.27059
-0.013077
-1.02296
-0.011024
-0.826761
-0.00934159
-0.672339
-0.00804901
-0.551943
-0.00692649
-0.459704
-0.0060567
-0.390889
-0.00523519
-0.342146
-0.00449839
-0.311014
-0.296255
-0.00378359
1.03021
-1233.75
0.841683
-1021.52
0.696117
-845.829
0.584807
-700.388
0.500146
-579.991
0.435865
-480.331
0.386962
-397.847
0.349543
-329.589
0.320587
-273.116
0.297788
-226.411
0.279368
-187.802
0.263957
-155.91
0.250466
-129.593
0.238022
-107.912
0.225884
-90.0898
0.213406
-75.4897
0.199979
-63.5895
0.185016
-53.9632
0.167899
-46.2669
0.147984
-40.2252
0.124564
-35.6222
0.0968973
-32.2933
0.0642339
-30.1202
0.0260349
-29.0252
-0.0172994
-28.8699
-0.0466002
-23.0519
-0.0640962
-18.4111
-0.0720894
-14.7072
-0.073005
-11.7514
-0.0691398
-9.39203
-0.0624484
-7.50897
-0.054484
-6.00585
-0.0463363
-4.80551
-0.0387072
-3.8465
-0.0319689
-3.07992
-0.0262574
-2.467
-0.0215507
-1.97705
-0.017729
-1.58573
-0.0146831
-1.27364
-0.0122348
-1.02541
-0.0102861
-0.828709
-0.00869492
-0.673931
-0.00738833
-0.553249
-0.00627384
-0.460819
-0.00533681
-0.391826
-0.00445389
-0.343028
-0.00376282
-0.311714
-0.296945
-0.00308143
1.0997
-1233.49
0.90038
-1021.32
0.747346
-845.676
0.631167
-700.271
0.543562
-579.903
0.4777
-480.266
0.428132
-397.798
0.390618
-329.551
0.361895
-273.088
0.339476
-226.388
0.321455
-187.784
0.306369
-155.895
0.293062
-129.58
0.28061
-107.899
0.26823
-90.0774
0.255233
-75.4768
0.240969
-63.5752
0.224803
-53.947
0.206065
-46.2482
0.184042
-40.2032
0.157952
-35.5961
0.126964
-32.2623
0.0902259
-30.0834
0.0470996
-28.9821
-0.00204409
-28.8207
-0.0355072
-23.0185
-0.055853
-18.3907
-0.065708
-14.6974
-0.0678
-11.7493
-0.0646904
-9.39514
-0.0585434
-7.51512
-0.0510393
-6.01336
-0.0433287
-4.81323
-0.0361274
-3.8537
-0.0298029
-3.08624
-0.0244779
-2.47233
-0.0201068
-1.98142
-0.0165885
-1.58925
-0.0137732
-1.27645
-0.0115439
-1.02764
-0.00974841
-0.830505
-0.00832297
-0.675357
-0.0071384
-0.554434
-0.00618276
-0.461775
-0.00532705
-0.39268
-0.00461994
-0.343737
-0.00390776
-0.312417
-0.297637
-0.00320744
1.17332
-1233.22
0.96275
-1021.11
0.802005
-845.515
0.680892
-700.15
0.590402
-579.813
0.523092
-480.198
0.473033
-397.748
0.435622
-329.514
0.407327
-273.059
0.38547
-226.366
0.368007
-187.766
0.35338
-155.88
0.340361
-129.567
0.327972
-107.887
0.315385
-90.0648
0.301868
-75.4632
0.286727
-63.5601
0.269277
-53.9296
0.248788
-46.2277
0.224478
-40.1789
0.19548
-35.5671
0.160864
-32.2277
0.119666
-30.0422
0.071134
-28.9336
0.0155916
-28.7652
-0.0224925
-22.9804
-0.0460515
-18.3672
-0.0580721
-14.6854
-0.0616063
-11.7457
-0.0594878
-9.39725
-0.054092
-7.52052
-0.047224
-6.02023
-0.0400912
-4.82036
-0.0334238
-3.86037
-0.0275893
-3.09208
-0.0226894
-2.47723
-0.0186916
-1.98542
-0.0154684
-1.59248
-0.0128979
-1.27902
-0.0108354
-1.02971
-0.00915933
-0.832182
-0.00778669
-0.676732
-0.00662461
-0.555597
-0.00564194
-0.46276
-0.00478492
-0.39354
-0.00401783
-0.344504
-0.00337438
-0.313071
-0.298259
-0.00276165
1.25135
-1232.94
1.02904
-1020.89
0.860323
-845.346
0.734197
-700.024
0.640874
-579.719
0.57225
-480.13
0.52188
-397.697
0.484772
-329.477
0.457105
-273.032
0.435994
-226.345
0.419255
-187.75
0.405223
-155.866
0.392597
-129.554
0.380343
-107.875
0.367585
-90.0521
0.353547
-75.4492
0.337487
-63.544
0.318667
-53.9108
0.296294
-46.2053
0.26951
-40.1521
0.237356
-35.5349
0.198794
-32.1891
0.152738
-29.9962
0.098304
-28.8792
0.0357455
-28.7026
-0.0074553
-22.9372
-0.0346229
-18.34
-0.0491391
-14.6709
-0.0544081
-11.7405
-0.053539
-9.39812
-0.0491178
-7.52494
-0.0430703
-6.02628
-0.0366592
-4.82678
-0.0306313
-3.8664
-0.0253515
-3.09736
-0.0209301
-2.48165
-0.0173145
-1.98904
-0.0144294
-1.59537
-0.0121218
-1.28133