/*--------------------------------*- C++ -*----------------------------------*\
  =========                 |
  \\      /  F ield         | OpenFOAM: The Open Source CFD Toolbox
   \\    /   O peration     | Website:  https://openfoam.org
    \\  /    A nd           | Version:  10
     \\/     M anipulation  |
\*---------------------------------------------------------------------------*/
FoamFile
{
    format      ascii;
    class       volVectorField;
    location    "5";
    object      U;
}
// * * * * * * * * * * * * * * * * * * * * * * * * * * * * * * * * * * * * * //

dimensions      [0 1 -1 0 0 0 0];

internalField   nonuniform List<vector> 
38016
(
(52.0818 -0.00094004 2.55958e-25)
(52.0828 -0.000487641 1.84209e-25)
(52.0837 -0.00035309 -2.22398e-25)
(52.0846 -0.000246459 0)
(52.0856 -0.000173496 0)
(52.0867 -0.000113892 0)
(52.088 -6.56026e-05 -5.3641e-26)
(52.0894 -2.05113e-05 -2.30485e-22)
(52.0912 5.9963e-05 -2.42314e-25)
(52.0932 0.000163094 2.90956e-25)
(52.0956 0.000358264 1.69858e-21)
(52.0984 0.000670163 -6.10403e-25)
(52.1015 0.00112695 2.69941e-21)
(52.1049 0.00181201 4.39344e-21)
(52.1086 0.00282836 -3.43692e-21)
(52.1124 0.00424002 0)
(52.1159 0.00615377 0)
(52.119 0.00876904 0)
(52.121 0.0122737 7.90017e-24)
(52.1213 0.0170043 -8.99787e-24)
(52.1184 0.0234958 3.19893e-21)
(52.1097 0.0330792 -4.0406e-21)
(52.092 0.0466501 5.06399e-21)
(52.054 0.0677272 -2.68836e-23)
(51.9976 0.0986703 7.62884e-21)
(51.8831 0.140488 -9.46292e-26)
(51.7246 0.190478 5.32546e-21)
(51.5179 0.245865 -6.18478e-23)
(51.2727 0.307043 -1.08905e-25)
(50.9978 0.371825 0)
(50.7009 0.440948 -1.2893e-25)
(50.391 0.515642 -2.07122e-22)
(50.0743 0.596421 9.15702e-21)
(49.7555 0.683839 0)
(49.4387 0.778437 0)
(49.1272 0.88019 0)
(48.8242 0.988232 0)
(48.5333 1.10081 2.33557e-21)
(48.2553 1.21609 1.47707e-21)
(47.9929 1.33253 2.74756e-24)
(47.7483 1.44799 -1.11795e-23)
(47.5216 1.56104 -4.21587e-21)
(47.3139 1.67069 8.47483e-22)
(47.1232 1.77597 -9.98239e-22)
(46.9464 1.87655 0)
(46.7797 1.97056 0)
(46.6216 2.0437 5.22809e-21)
(46.437 2.20776 -4.85372e-21)
(52.0819 -0.000966677 -1.71835e-20)
(52.0829 -0.00050871 7.51448e-25)
(52.0838 -0.000374671 1.53326e-20)
(52.0846 -0.000269601 0)
(52.0856 -0.000199065 0)
(52.0867 -0.000142807 -4.59604e-21)
(52.088 -9.8787e-05 3.84623e-27)
(52.0894 -5.87975e-05 2.25476e-22)
(52.0912 1.58171e-05 9.09994e-22)
(52.0932 0.000113316 2.79277e-25)
(52.0956 0.000303048 1.63984e-21)
(52.0984 0.000610323 9.66559e-25)
(52.1015 0.00106475 -2.76806e-21)
(52.1049 0.00174997 -4.52171e-21)
(52.1085 0.00276937 3.55135e-21)
(52.1122 0.00418864 -1.07173e-20)
(52.1157 0.00610992 -7.90737e-21)
(52.1187 0.00873591 1.20844e-23)
(52.1208 0.0122549 2.45602e-24)
(52.1211 0.0169987 -1.9027e-23)
(52.1185 0.0234992 -1.01875e-20)
(52.1108 0.0330828 1.29182e-20)
(52.0961 0.0464832 -5.45033e-21)
(52.0674 0.0665637 -1.31327e-20)
(52.002 0.0994607 8.02028e-21)
(51.8957 0.148978 2.9551e-23)
(51.7467 0.210798 -5.38484e-21)
(51.5483 0.282395 -1.80922e-20)
(51.3093 0.364134 1.46777e-20)
(51.0379 0.453115 0)
(50.7417 0.549891 0)
(50.4298 0.655662 -1.27833e-20)
(50.1094 0.770847 -8.9099e-21)
(49.7858 0.895978 1.24955e-20)
(49.4636 1.03164 0)
(49.1474 1.17758 -1.12186e-20)
(48.8409 1.33247 0)
(48.5473 1.49402 -2.32193e-21)
(48.2679 1.65977 3.00483e-21)
(48.0052 1.82749 -3.74851e-21)
(47.7604 1.99442 4.71357e-21)
(47.534 2.15863 1.41628e-21)
(47.3265 2.31845 8.90359e-22)
(47.1359 2.47236 -1.05447e-21)
(46.9587 2.61935 0)
(46.7895 2.7562 0)
(46.621 2.86404 4.11548e-21)
(46.3978 3.11009 -5.12747e-21)
(52.0819 -0.000990197 -2.84884e-22)
(52.0828 -0.000527212 0)
(52.0837 -0.000394074 -3.09676e-20)
(52.0846 -0.000290892 0)
(52.0856 -0.000223005 0)
(52.0867 -0.000170316 4.59634e-21)
(52.088 -0.000130964 -3.47864e-26)
(52.0894 -9.67118e-05 3.82899e-26)
(52.0912 -2.91933e-05 -9.08588e-22)
(52.0932 6.06616e-05 2.69978e-25)
(52.0956 0.000241973 -3.3714e-21)
(52.0984 0.00054013 -6.18855e-21)
(52.1015 0.000986539 1.07589e-20)
(52.1049 0.00166587 8.93853e-24)
(52.1085 0.00268415 -6.11916e-24)
(52.1123 0.00411196 1.07021e-20)
(52.1158 0.00605983 7.89801e-21)
(52.1188 0.00874265 -1.94005e-24)
(52.1209 0.0123712 1.40044e-23)
(52.1212 0.0173198 0)
(52.1184 0.0241977 2.02442e-20)
(52.1101 0.0344797 -8.57791e-21)
(52.0937 0.0492349 1.07493e-20)
(52.0581 0.0723036 2.60677e-20)
(51.9987 0.10933 -3.73553e-23)
(51.8871 0.165244 0)
(51.7345 0.236493 -2.14647e-20)
(51.5334 0.320717 1.76397e-20)
(51.2941 0.418575 -1.42619e-20)
(51.025 0.527031 0)
(50.733 0.646708 -5.80606e-22)
(50.4274 0.778947 -1.11487e-20)
(50.1146 0.924131 -2.20309e-21)
(49.8 1.0827 -8.96452e-21)
(49.4877 1.25514 1.44439e-20)
(49.1821 1.44096 1.0693e-20)
(48.8866 1.63832 0)
(48.6051 1.84413 9.11828e-21)
(48.3389 2.05508 -2.88424e-21)
(48.0905 2.26803 3.59171e-21)
(47.862 2.47926 -8.87003e-21)
(47.6533 2.68593 5.47158e-21)
(47.4649 2.88572 -8.14288e-21)
(47.2944 3.07652 2.04529e-21)
(47.1366 3.25678 1.85956e-22)
(46.9828 3.4234 1.25589e-20)
(46.817 3.56478 -2.92677e-23)
(46.5502 3.86833 9.2548e-21)
(52.0819 -0.00101332 5.29688e-20)
(52.0829 -0.000545932 0)
(52.0838 -0.000413814 1.5633e-20)
(52.0846 -0.000312624 2.28474e-24)
(52.0856 -0.000247547 2.01228e-20)
(52.0867 -0.000198635 -2.4289e-25)
(52.088 -0.000164127 -4.08326e-21)
(52.0894 -0.000135807 0)
(52.0912 -7.55197e-05 1.38393e-21)
(52.0933 6.6769e-06 0)
(52.0956 0.0001799 -6.3729e-21)
(52.0984 0.000470151 6.18857e-21)
(52.1015 0.000911014 -1.07568e-20)
(52.105 0.00158914 -3.78335e-24)
(52.1086 0.00261461 -1.38535e-20)
(52.1124 0.00406454 -2.1135e-20)
(52.116 0.00605859 1.70142e-23)
(52.119 0.00882715 -2.00363e-23)
(52.1212 0.0126032 0)
(52.1216 0.017803 2.05579e-20)
(52.1191 0.0251049 -2.68512e-20)
(52.1112 0.0361141 1.69595e-20)
(52.0964 0.0520846 -3.1968e-20)
(52.0652 0.0771563 -1.30066e-20)
(52.0038 0.118846 -1.57004e-20)
(51.8955 0.18279 -1.15901e-22)
(51.7463 0.265292 9.94646e-23)
(51.5468 0.364004 3.52595e-20)
(51.3083 0.479505 -2.87107e-20)
(51.0394 0.608172 0)
(50.7477 0.750432 0)
(50.4431 0.907569 -3.11299e-22)
(50.133 1.07986 1.72993e-20)
(49.8228 1.26768 0)
(49.5174 1.47147 -1.57413e-20)
(49.2212 1.69053 0)
(48.9379 1.92258 0)
(48.6708 2.1641 -8.6522e-21)
(48.4209 2.41125 5.59625e-21)
(48.1905 2.66029 6.83154e-21)
(47.9802 2.90704 -8.53896e-21)
(47.7898 3.14814 -5.24382e-21)
(47.6188 3.38079 -1.23532e-20)
(47.4639 3.60278 1.47739e-20)
(47.3193 3.81295 0)
(47.1751 4.01059 5.7789e-23)
(47.0147 4.19382 2.0689e-20)
(46.7686 4.55269 -2.06844e-20)
(52.0819 -0.00103747 -3.55035e-20)
(52.0828 -0.000565067 -3.17707e-24)
(52.0838 -0.000433922 3.24844e-20)
(52.0846 -0.000334743 -1.90664e-20)
(52.0856 -0.000272454 -2.01255e-20)
(52.0867 -0.000227314 -1.03106e-20)
(52.088 -0.000197681 -4.5782e-21)
(52.0894 -0.000175316 0)
(52.0912 -0.00012234 -1.38345e-21)
(52.0932 -4.79426e-05 5.72815e-26)
(52.0956 0.000116707 6.37131e-21)
(52.0984 0.000397886 1.22785e-24)
(52.1015 0.000830922 0)
(52.1049 0.00150328 -5.01945e-24)
(52.1085 0.00252722 1.38628e-20)
(52.1123 0.0039838 2.11407e-20)
(52.1158 0.00599813 1.55389e-20)
(52.1189 0.00880952 -2.205e-20)
(52.121 0.0126661 0)
(52.1214 0.0180127 -4.10322e-20)
(52.1189 0.0255802 1.33967e-20)
(52.111 0.0370672 -1.69927e-20)
(52.096 0.0539183 4.24512e-20)
(52.0632 0.0807663 5.53451e-23)
(52.0048 0.12564 -5.58222e-23)
(51.8968 0.195429 -1.15012e-22)
(51.7495 0.286629 4.21858e-20)
(51.5529 0.397048 -3.50636e-20)
(51.3187 0.527373 -1.99246e-22)
(51.0552 0.673773 0)
(50.7694 0.836651 1.13269e-21)
(50.4711 1.01732 2.26648e-20)
(50.1676 1.21603 -1.69447e-20)
(49.8643 1.43305 0)
(49.5661 1.6687 0)
(49.2779 1.92199 2.08493e-20)
(49.0036 2.19011 -6.80531e-21)
(48.7471 2.46891 8.51216e-21)
(48.5097 2.75382 1.22009e-22)
(48.2935 3.04029 -1.36386e-20)
(48.0995 3.32343 8.41559e-21)
(47.9271 3.5993 1.01412e-20)
(47.775 3.86487 2.4063e-20)
(47.6391 4.11842 -3.23624e-20)
(47.5126 4.36028 -3.22399e-20)
(47.3857 4.593 3.68052e-20)
(47.2418 4.82244 2.46014e-21)
(47.0282 5.21735 2.52521e-21)
(52.0819 -0.00106359 0)
(52.0829 -0.000585502 0)
(52.0838 -0.000455026 -3.24809e-20)
(52.0846 -0.000357603 1.90662e-20)
(52.0856 -0.000298015 0)
(52.0867 -0.000256631 1.0313e-20)
(52.088 -0.000231908 8.66638e-21)
(52.0894 -0.000215613 -2.25887e-25)
(52.0912 -0.000170016 0)
(52.0933 -0.000103484 0)
(52.0956 5.28428e-05 1.20054e-20)
(52.0984 0.000325772 0)
(52.1015 0.000752776 0)
(52.105 0.00142315 1.71544e-20)
(52.1086 0.0024529 2.72683e-20)
(52.1124 0.00392918 -2.08697e-20)
(52.116 0.00598619 -1.55261e-20)
(52.1191 0.00887737 4.39623e-20)
(52.1213 0.0128728 2.76176e-23)
(52.1218 0.0184588 2.04348e-20)
(52.1194 0.0264368 -2.65032e-20)
(52.1116 0.0386283 0)
(52.0971 0.056709 -2.11595e-20)
(52.0654 0.0857577 0)
(52.0068 0.135032 0)
(51.8995 0.21219 1.14675e-22)
(51.7531 0.313827 -6.276e-20)
(51.5567 0.437822 3.494e-20)
(51.3228 0.584783 2.83473e-20)
(51.0601 0.750535 0)
(50.7762 0.93534 3.25308e-20)
(50.4813 1.14046 1.43157e-21)
(50.1834 1.36606 3.66506e-20)
(49.8882 1.61232 1.77267e-20)
(49.6012 1.87937 7.87252e-21)
(49.3271 2.16592 -4.65437e-20)
(49.0702 2.46858 6.81002e-21)
(48.8338 2.78261 -8.51313e-21)
(48.6192 3.10277 -1.09254e-20)
(48.4279 3.42376 2.02178e-20)
(48.26 3.74021 -2.49441e-20)
(48.1142 4.0478 -2.00234e-20)
(47.9882 4.34355 3.05213e-20)
(47.8774 4.62649 3.52138e-21)
(47.7761 4.89817 -3.23061e-20)
(47.6751 5.1633 3.45892e-20)
(47.5641 5.43189 -2.39754e-21)
(47.4051 5.84757 -2.45859e-21)
(52.0819 -0.00108994 -4.56934e-24)
(52.0828 -0.00060587 0)
(52.0838 -0.000476166 3.37032e-20)
(52.0846 -0.000380631 -4.85926e-24)
(52.0856 -0.000323786 2.38637e-24)
(52.0867 -0.000286206 -3.99822e-24)
(52.088 -0.000266449 -9.65657e-21)
(52.0894 -0.000256267 5.76269e-21)
(52.0912 -0.00021811 0)
(52.0932 -0.000159509 9.55186e-21)
(52.0956 -1.16977e-05 -1.20021e-20)
(52.0984 0.000252584 -1.78371e-24)
(52.1015 0.000672815 2.1455e-24)
(52.1049 0.00133969 -1.71534e-20)
(52.1086 0.00237235 -2.72602e-20)
(52.1123 0.00386306 2.08495e-20)
(52.1159 0.00595373 1.37121e-23)
(52.119 0.00890963 -2.19278e-20)
(52.1212 0.0130204 -2.74894e-23)
(52.1218 0.0188087 0)
(52.1194 0.0271413 2.66157e-20)
(52.1117 0.0399505 3.33705e-20)
(52.0975 0.0591374 0)
(52.0658 0.0902628 0)
(52.0087 0.143571 -1.38229e-22)
(51.9027 0.227832 1.74272e-22)
(51.7587 0.339792 4.16987e-20)
(51.5653 0.477475 -3.48733e-20)
(51.3353 0.641473 -5.06851e-22)
(51.0774 0.827355 1.41449e-21)
(50.7989 1.03527 -3.5666e-20)
(50.5104 1.26641 4.89359e-20)
(50.2202 1.52086 -3.21881e-20)
(49.9341 1.79861 -4.7193e-20)
(49.6579 2.0995 0)
(49.3969 2.42177 2.07265e-20)
(49.1556 2.76126 6.84703e-21)
(48.9375 3.11247 -2.59408e-20)
(48.7437 3.46924 2.18028e-20)
(48.5755 3.82538 -1.36979e-20)
(48.4324 4.1749 0)
(48.3125 4.51313 -5.05238e-21)
(48.2126 4.83728 1.25571e-22)
(48.1286 5.14701 2.85576e-20)
(48.0545 5.4447 -7.04974e-20)
(47.9842 5.73602 7.69049e-22)
(47.9095 6.03219 4.04551e-20)
(47.8059 6.44516 -5.31084e-21)
(52.0819 -0.00111815 7.56014e-20)
(52.0829 -0.000627572 -5.34473e-20)
(52.0838 -0.000498365 3.49067e-20)
(52.0846 -0.000404493 4.06417e-20)
(52.0856 -0.00035033 3.55012e-25)
(52.0867 -0.000316559 2.96948e-24)
(52.088 -0.000301818 1.98171e-20)
(52.0894 -0.000297853 -5.76831e-21)
(52.0912 -0.000267217 2.0412e-25)
(52.0933 -0.000216616 -9.54616e-21)
(52.0956 -7.72133e-05 0)
(52.0984 0.000178837 2.23797e-20)
(52.1015 0.000593239 3.00368e-24)
(52.105 0.00125857 -3.60626e-24)
(52.1086 0.00229783 -7.61928e-24)
(52.1124 0.0038094 -4.11749e-20)
(52.116 0.00594451 -1.66733e-23)
(52.1192 0.00898267 1.96363e-23)
(52.1214 0.0132362 0)
(52.122 0.0192711 0)
(52.1197 0.0280287 0)
(52.1122 0.0415679 -3.35104e-20)
(52.0982 0.0620476 -1.24899e-23)
(52.0671 0.0955395 2.52696e-20)
(52.0107 0.153494 0)
(51.9057 0.245693 0)
(51.7632 0.369056 0)
(51.5715 0.521722 -3.49791e-20)
(51.3438 0.70419 5.73068e-20)
(51.0892 0.911711 -4.66254e-20)
(50.8152 1.14425 -2.97065e-20)
(50.5331 1.40286 -5.51218e-20)
(50.2515 1.68745 -3.06312e-20)
(49.9768 1.99774 2.36132e-20)
(49.7151 2.33315 0)
(49.472 2.69128 0)
(49.2522 3.06708 1.35493e-20)
(49.0586 3.45411 1.69941e-20)
(48.8924 3.84525 -1.08941e-20)
(48.7539 4.23341 1.35882e-20)
(48.6417 4.61209 -3.36893e-20)
(48.553 4.97638 8.22728e-20)
(48.4841 5.32378 -5.58337e-20)
(48.4311 5.65435 0)
(48.3886 5.97083 6.69604e-20)
(48.3523 6.27893 -7.65367e-20)
(48.3167 6.59094 -5.24926e-21)
(48.2663 6.98659 5.26076e-21)
(52.0819 -0.00114721 -1.52384e-19)
(52.0828 -0.000649564 5.34608e-20)
(52.0838 -0.000520884 -6.86114e-20)
(52.0846 -0.000428748 -4.06478e-20)
(52.0856 -0.000377277 0)
(52.0867 -0.000347344 1.21299e-24)
(52.088 -0.000337676 1.11469e-20)
(52.0894 -0.00034 0)
(52.0912 -0.000316953 1.17657e-21)
(52.0932 -0.000274427 0)
(52.0956 -0.000143499 -4.62636e-25)
(52.0984 0.000104282 -2.23737e-20)
(52.1015 0.00051286 0)
(52.1049 0.0011767 0)
(52.1086 0.00222268 -7.56253e-24)
(52.1124 0.00375525 4.12024e-20)
(52.116 0.00593504 -1.35433e-23)
(52.1192 0.00905569 4.32479e-20)
(52.1214 0.0134527 0)
(52.1221 0.0197353 0)
(52.1199 0.0289211 0)
(52.1126 0.0431972 7.04566e-23)
(52.0989 0.0649888 -7.55202e-23)
(52.0683 0.1009 -2.51832e-20)
(52.013 0.163601 0)
(51.9096 0.264016 0)
(51.7697 0.399262 -4.11033e-20)
(51.5811 0.567609 6.94e-20)
(51.3574 0.769453 1.84327e-22)
(51.108 0.999723 4.49554e-20)
(50.8406 1.25815 3.38678e-20)
(50.5667 1.54556 -4.95371e-20)
(50.2956 1.86163 3.46197e-20)
(50.0342 2.20566 0)
(49.7885 2.57646 0)
(49.5652 2.9708 -5.30425e-20)
(49.3685 3.3825 1.37117e-20)
(49.2013 3.80406 1.73565e-20)
(49.0642 4.22721 -2.21808e-20)
(48.9566 4.64401 -1.38683e-20)
(48.8761 5.04741 3.40029e-20)
(48.8192 5.43252 -4.16707e-20)
(48.7821 5.797 0)
(48.7596 6.14126 0)
(48.7493 6.46817 1.30033e-20)
(48.7448 6.78309 0)
(48.7462 7.09935 1.06219e-20)
(48.7425 7.46234 0)
(52.0819 -0.00117777 7.67639e-20)
(52.0829 -0.000672686 0)
(52.0838 -0.000544322 -7.10626e-20)
(52.0847 -0.000453755 -4.23112e-20)
(52.0856 -0.000404954 -4.6955e-20)
(52.0867 -0.000378902 -2.52277e-24)
(52.088 -0.000374384 -4.36164e-20)
(52.0894 -0.000383115 -1.39171e-24)
(52.0912 -0.000367771 -1.16758e-21)
(52.0932 -0.000333434 -2.89097e-25)
(52.0956 -0.000210994 -2.10185e-20)
(52.0984 2.86851e-05 0)
(52.1015 0.000431922 0)
(52.105 0.00109534 0)
(52.1086 0.00215009 2.63556e-20)
(52.1124 0.00370727 -4.06337e-20)
(52.1161 0.00593773 3.02205e-20)
(52.1192 0.00915052 -4.3273e-20)
(52.1216 0.0137062 2.70886e-23)
(52.1223 0.0202609 0)
(52.1202 0.0299144 -5.49544e-23)
(52.113 0.0449905 6.05766e-23)
(52.0997 0.068203 0)
(52.0697 0.106718 4.97361e-20)
(52.0154 0.174531 -1.36261e-22)
(51.9138 0.283728 1.71584e-22)
(51.7762 0.43165 4.14488e-20)
(51.5907 0.616691 2.87241e-24)
(51.3712 0.839084 -5.62445e-20)
(51.1272 1.09339 -4.65313e-20)
(50.8669 1.37903 -2.31544e-21)
(50.6023 1.6965 5.22913e-20)
(50.3434 2.0451 0)
(50.0974 2.42356 0)
(49.8709 2.82989 3.22065e-20)
(49.6707 3.25977 4.20856e-20)
(49.5008 3.70574 -2.72748e-20)
(49.3637 4.15906 -1.76143e-20)
(49.2591 4.61036 -2.52903e-22)
(49.1853 5.05087 2.77339e-20)
(49.1389 5.47325 -3.4346e-20)
(49.1152 5.87273 8.42458e-23)
(49.11 6.2473 3.81106e-20)
(49.1188 6.59766 7.66417e-21)
(49.1375 6.92681 -8.69252e-21)
(49.164 7.24025 7.98022e-20)
(49.1955 7.55179 -1.80864e-19)
(49.2305 7.87436 9.29493e-20)
(52.0819 -0.00120961 -1.05143e-23)
(52.0828 -0.000696383 -1.12044e-19)
(52.0838 -0.000568322 1.43342e-19)
(52.0846 -0.000479374 4.23208e-20)
(52.0856 -0.000433246 4.69651e-20)
(52.0867 -0.000411111 3.23259e-24)
(52.088 -0.000411825 2.23119e-20)
(52.0894 -0.000427076 1.29135e-24)
(52.0912 -0.00041955 2.11632e-25)
(52.0932 -0.000393519 -2.55142e-25)
(52.0956 -0.000279639 7.41859e-22)
(52.0984 -4.80299e-05 -3.30373e-26)
(52.1015 0.000350097 0)
(52.105 0.00101367 3.24372e-20)
(52.1086 0.0020784 -2.63477e-20)
(52.1125 0.00366226 4.06208e-20)
(52.1161 0.00594701 -3.02071e-20)
(52.1193 0.00925773 -4.28086e-20)
(52.1217 0.0139815 -3.16836e-23)
(52.1225 0.0208234 -5.7704e-24)
(52.1205 0.0309695 -7.0721e-24)
(52.1135 0.0468866 -3.26049e-20)
(52.1006 0.0715929 -7.46421e-23)
(52.0711 0.112843 -4.97483e-20)
(52.0182 0.186027 0)
(51.9185 0.304463 2.25898e-22)
(51.7839 0.465738 -2.84373e-22)
(51.6024 0.668365 3.54414e-20)
(51.388 0.912367 -8.0272e-22)
(51.1507 1.1919 -1.25597e-22)
(50.8989 1.50597 -6.84028e-20)
(50.6455 1.8546 5.30735e-20)
(50.4006 2.2366 -4.16221e-21)
(50.1725 2.64995 5.43304e-20)
(49.9676 3.09153 -3.98796e-20)
(49.7931 3.55577 0)
(49.6528 4.03374 0)
(49.5479 4.51538 -1.78405e-20)
(49.4775 4.99026 2.21428e-20)
(49.4383 5.44895 -3.45884e-23)
(49.4257 5.8841 8.6774e-20)
(49.4347 6.29123 -4.25536e-20)
(49.4594 6.66885 1.27758e-20)
(49.4968 7.01819 -7.61666e-21)
(49.5411 7.34253 -7.21361e-20)
(49.5928 7.64755 8.23606e-20)
(49.6481 7.94818 0)
(49.7145 8.22523 9.59226e-20)
(52.0819 -0.00124286 -1.60527e-19)
(52.0829 -0.000721165 -1.15484e-19)
(52.0838 -0.000593222 -7.228e-20)
(52.0847 -0.000505748 8.79877e-20)
(52.0856 -0.000462296 -6.15178e-24)
(52.0867 -0.000444143 -5.1743e-20)
(52.088 -0.00045019 0)
(52.0894 -0.000472104 1.81403e-20)
(52.0912 -0.000472547 1.45239e-21)
(52.0932 -0.000454977 -6.66638e-21)
(52.0956 -0.000349749 3.97743e-20)
(52.0984 -0.000126141 2.57141e-25)
(52.1015 0.000267224 0)
(52.105 0.000931801 -6.45046e-20)
(52.1086 0.00200819 -5.1792e-20)
(52.1125 0.00362182 -4.00703e-20)
(52.1162 0.005966 1.32884e-23)
(52.1194 0.00938304 4.28114e-20)
(52.1218 0.0142882 0)
(52.1227 0.0214385 -4.19688e-23)
(52.1208 0.0321119 4.73505e-23)
(52.1141 0.0489253 3.26751e-20)
(52.1015 0.0752217 7.41907e-23)
(52.0728 0.119373 -1.06216e-22)
(52.0212 0.198251 2.99484e-20)
(51.9239 0.326453 4.72633e-20)
(51.7925 0.501834 -4.0379e-20)
(51.6155 0.723012 -1.39024e-19)
(51.407 0.989735 -2.04495e-21)
(51.1772 1.29569 4.46035e-20)
(50.9353 1.63935 7.21874e-20)
(50.6945 2.0201 1.77748e-22)
(50.4658 2.43608 -7.01771e-20)
(50.2578 2.88427 -4.79219e-20)
(50.0774 3.36023 1.65898e-20)
(49.9315 3.85685 -8.50497e-20)
(49.823 4.36365 -2.85269e-20)
(49.7524 4.86925 3.46077e-20)
(49.7174 5.36233 -2.22764e-20)
(49.7131 5.83309 -4.21911e-20)
(49.7337 6.27451 1.22634e-19)
(49.7733 6.6827 -8.60862e-20)
(49.8261 7.05693 1.05138e-19)
(49.8871 7.39919 -2.59738e-19)
(49.9541 7.7136 1.47767e-19)
(50.0239 8.0055 0)
(50.0988 8.29222 1.9816e-19)
(50.1873 8.52208 -2.0393e-19)
(52.0819 -0.00127761 1.60529e-19)
(52.0829 -0.000746672 3.43054e-19)
(52.0838 -0.000618826 -7.47476e-20)
(52.0846 -0.000532877 -1.7764e-19)
(52.0856 -0.000492108 0)
(52.0867 -0.000477991 5.1754e-20)
(52.088 -0.000489479 0)
(52.0894 -0.00051821 -1.81522e-20)
(52.0912 -0.000526782 -1.46178e-21)
(52.0932 -0.000517845 6.66015e-21)
(52.0956 -0.000421389 -3.827e-20)
(52.0984 -0.000205762 -1.99777e-20)
(52.1015 0.000183118 3.70536e-20)
(52.105 0.000849439 3.20627e-20)
(52.1087 0.00193907 5.17806e-20)
(52.1125 0.0035853 4.00668e-20)
(52.1162 0.00599388 0)
(52.1195 0.00952523 0)
(52.1219 0.0146246 3.13718e-23)
(52.1229 0.0221041 3.93726e-20)
(52.1212 0.0333378 -5.12734e-20)
(52.1146 0.0511015 0)
(52.1026 0.0790803 0)
(52.0746 0.126293 0)
(52.0246 0.211174 -5.91808e-20)
(51.9299 0.349656 -9.53997e-20)
(51.8023 0.539879 4.09107e-20)
(51.6304 0.780543 6.93613e-20)
(51.4287 1.07105 0)
(51.2078 1.40454 0)
(50.9771 1.77882 4.64875e-21)
(50.7509 2.19243 -5.54968e-20)
(50.5406 2.64263 6.99558e-20)
(50.3553 3.12518 -1.24953e-20)
(50.2018 3.63402 4.79758e-20)
(50.0868 4.16034 4.24042e-20)
(50.0122 4.69211 -1.79001e-22)
(49.9771 5.21671 3.52936e-20)
(49.9774 5.72216 0)
(50.007 6.19879 -1.137e-19)
(50.0589 6.64018 8.82106e-20)
(50.1259 7.04343 0)
(50.203 7.4089 0)
(50.2836 7.73951 7.92146e-21)
(50.3673 8.04031 0)
(50.4513 8.31663 1.09602e-20)
(50.5384 8.58745 -1.17595e-20)
(50.6428 8.77077 6.24603e-21)
(52.082 -0.00131384 -1.65235e-19)
(52.0829 -0.000773314 1.72001e-21)
(52.0838 -0.000645387 -7.71744e-20)
(52.0847 -0.000560828 1.81016e-19)
(52.0856 -0.000522761 -5.14501e-20)
(52.0867 -0.000512766 -6.99237e-24)
(52.088 -0.000529821 0)
(52.0894 -0.000565544 6.97116e-25)
(52.0912 -0.000582439 -8.41866e-25)
(52.0932 -0.000582337 0)
(52.0956 -0.0004948 7.43846e-22)
(52.0984 -0.000287163 1.99712e-20)
(52.1015 9.75199e-05 -3.70461e-20)
(52.105 0.000766425 6.26324e-20)
(52.1087 0.00187103 0)
(52.1125 0.00355311 0)
(52.1162 0.00603159 0)
(52.1195 0.0096863 0)
(52.122 0.0149943 -3.12161e-23)
(52.1231 0.022826 -3.9382e-20)
(52.1215 0.0346573 1.02294e-19)
(52.1153 0.0534303 6.83818e-23)
(52.1037 0.0831923 -7.32715e-23)
(52.0767 0.133638 4.83696e-20)
(52.0283 0.22485 2.96074e-20)
(51.9367 0.374143 9.4347e-20)
(51.8133 0.579956 -7.57843e-22)
(51.6474 0.841048 9.52849e-22)
(51.4535 1.15639 -5.69273e-20)
(51.2426 1.51845 0)
(51.025 1.92423 0)
(50.8152 2.37119 5.63428e-20)
(50.6254 2.85546 -8.32828e-21)
(50.4651 3.37137 1.24945e-20)
(50.341 3.91095 -1.12451e-19)
(50.2588 4.46361 4.26332e-20)
(50.2193 5.01581 2.75763e-20)
(50.2199 5.55395 -3.6012e-20)
(50.2549 6.0658 1.13241e-19)
(50.3163 6.54224 5.79662e-20)
(50.3966 6.9779 -1.68752e-20)
(50.488 7.37112 -1.99455e-19)
(50.584 7.72359 1.08047e-19)
(50.6809 8.03968 -1.47663e-19)
(50.7751 8.32465 1.5391e-19)
(50.8697 8.58464 1.55349e-19)
(50.9634 8.8393 -1.95611e-19)
(51.0782 8.97836 0)
(52.0819 -0.00135172 3.32819e-19)
(52.0829 -0.000800784 -2.36127e-19)
(52.0838 -0.000672754 1.51886e-19)
(52.0846 -0.000589642 1.66851e-21)
(52.0856 -0.000554295 5.14576e-20)
(52.0867 -0.000548496 1.31837e-23)
(52.088 -0.000571256 -7.26402e-24)
(52.0894 -0.000614163 2.21166e-20)
(52.0912 -0.000639591 -3.9544e-25)
(52.0932 -0.000648556 4.76065e-25)
(52.0956 -0.000570117 1.80009e-20)
(52.0984 -0.000370516 -1.11348e-24)
(52.1015 1.02374e-05 3.58369e-20)
(52.105 0.000682536 -7.41403e-22)
(52.1087 0.00180391 -5.04133e-20)
(52.1126 0.00352513 -1.09847e-23)
(52.1163 0.00607935 1.30332e-23)
(52.1196 0.0098669 0)
(52.1222 0.0153989 -3.10613e-23)
(52.1233 0.0236071 -5.63047e-24)
(52.1219 0.0360745 -5.09755e-20)
(52.116 0.0559186 0)
(52.1049 0.0875675 3.98034e-20)
(52.0788 0.141421 -9.61874e-20)
(52.0324 0.239293 -2.08878e-22)
(51.9441 0.399928 -4.69806e-20)
(51.8257 0.622072 4.01051e-20)
(51.6665 0.904499 -1.26075e-21)
(51.4815 1.24565 3.78953e-21)
(51.2822 1.63723 -2.55197e-21)
(51.0791 2.07518 -4.63568e-21)
(50.8879 2.55567 -9.33361e-20)
(50.7208 3.07345 6.99238e-20)
(50.5879 3.62114 1.24826e-20)
(50.4952 4.18871 4.87331e-20)
(50.4473 4.76375 -8.5074e-20)
(50.4434 5.33139 -2.7766e-20)
(50.4792 5.87741 0)
(50.5469 6.38981 2.22274e-22)
(50.6378 6.86044 -2.85885e-20)
(50.7424 7.28539 0)
(50.8543 7.6646 2.22236e-20)
(50.9649 8.00116 -1.38894e-20)
(51.0729 8.30082 1.64447e-20)
(51.1748 8.56931 0)
(51.2742 8.81273 1.11547e-20)
(51.3709 9.05235 0)
(51.4925 9.15001 0)
(52.082 -0.00139117 -1.67607e-19)
(52.0829 -0.000829473 2.39645e-19)
(52.0838 -0.00070116 -1.56818e-19)
(52.0847 -0.000619367 9.63636e-20)
(52.0856 -0.000586774 0)
(52.0867 -0.000585279 0)
(52.088 -0.000613899 5.66078e-20)
(52.0894 -0.000664201 -2.21291e-20)
(52.0912 -0.000698408 0)
(52.0932 -0.000716699 1.20543e-24)
(52.0956 -0.000647578 -1.45244e-24)
(52.0984 -0.000456076 3.70567e-20)
(52.1015 -7.9042e-05 -3.58275e-20)
(52.105 0.000597486 -6.18695e-20)
(52.1087 0.0017375 4.57357e-22)
(52.1126 0.00350146 0)
(52.1164 0.00613761 0)
(52.1197 0.0100683 -2.25525e-23)
(52.1223 0.0158406 2.62843e-23)
(52.1236 0.0244514 7.7693e-20)
(52.1223 0.0375968 -4.63843e-23)
(52.1167 0.0585774 0)
(52.1062 0.0922221 -7.91853e-20)
(52.0813 0.149665 4.78534e-20)
(52.0368 0.254532 0)
(51.9525 0.427041 0)
(51.8395 0.666241 -4.08247e-20)
(51.6881 0.970882 6.88689e-20)
(51.5134 1.33875 5.65818e-20)
(51.3269 1.76063 0)
(51.1404 2.23122 0)
(50.9697 2.7451 5.17591e-23)
(50.8275 3.29535 -8.80812e-20)
(50.7239 3.87269 2.30062e-20)
(50.6642 4.46491 -6.43912e-20)
(50.6515 5.05787 -1.33889e-22)
(50.683 5.63568 8.4157e-20)
(50.7525 6.18393 -3.4571e-20)
(50.8506 6.69138 6.98299e-20)
(50.9669 7.15133 -2.61097e-19)
(51.093 7.56162 1.44629e-19)
(51.2194 7.92375 0)
(51.3423 8.24281 1.38296e-20)
(51.4552 8.52491 0)
(51.5635 8.77724 -3.41639e-19)
(51.6618 9.00432 3.67132e-19)
(51.761 9.23077 0)
(51.8858 9.28974 0)
(52.0819 -0.00143241 0)
(52.0829 -0.000859077 -1.20685e-19)
(52.0838 -0.000730465 -2.44453e-21)
(52.0846 -0.00065006 -1.89422e-19)
(52.0856 -0.000620251 -1.09673e-19)
(52.0867 -0.000623154 5.9283e-20)
(52.088 -0.000657802 -5.66249e-20)
(52.0894 -0.000715737 -1.90687e-24)
(52.0912 -0.000758986 1.16919e-20)
(52.0932 -0.000786898 7.53429e-21)
(52.0956 -0.000727343 -1.57627e-24)
(52.0984 -0.00054405 -3.70376e-20)
(52.1015 -0.000170519 -2.66402e-24)
(52.105 0.00051104 -6.03627e-20)
(52.1087 0.00167162 4.99444e-20)
(52.1126 0.00348201 7.73119e-20)
(52.1164 0.00620671 -6.43205e-24)
(52.1198 0.0102913 0)
(52.1225 0.0163216 0)
(52.1238 0.0253629 -7.77192e-20)
(52.1228 0.03923 4.61492e-23)
(52.1176 0.0614162 1.34209e-22)
(52.1076 0.0971696 3.94077e-20)
(52.0839 0.158386 4.72808e-20)
(52.0418 0.270585 -2.58339e-22)
(51.9617 0.455489 3.24458e-22)
(51.8551 0.712451 3.93899e-20)
(51.7124 1.04012 -6.53645e-20)
(51.5491 1.43552 -3.1286e-21)
(51.3772 1.88833 -3.82267e-20)
(51.209 2.39175 -7.52185e-20)
(51.061 2.93849 6.24436e-20)
(50.9457 3.51971 -1.65056e-20)
(50.8733 4.12403 -2.48583e-20)
(50.8479 4.73709 9.52616e-20)
(50.8704 5.34318 8.5973e-20)
(50.9364 5.92585 -5.33657e-20)
(51.0374 6.47097 -1.42256e-19)
(51.1625 6.9686 0)
(51.3009 7.41392 2.90199e-20)
(51.4433 7.80653 -1.67076e-19)
(51.5814 8.14997 1.59155e-19)
(51.7106 8.45048 2.4201e-19)
(51.8277 8.71538 -2.72871e-19)
(51.936 8.95161 2.01237e-20)
(52.0347 9.16399 0)
(52.1318 9.37781 -1.30982e-20)
(52.258 9.40087 -4.57732e-19)
(52.082 -0.00147534 0)
(52.0829 -0.000889996 0)
(52.0838 -0.000760903 1.59252e-19)
(52.0847 -0.000681761 9.80807e-20)
(52.0856 -0.000654785 1.0969e-19)
(52.0867 -0.000662218 1.4954e-21)
(52.088 -0.000703083 0)
(52.0894 -0.000768903 0)
(52.0912 -0.000821497 -1.17088e-20)
(52.0932 -0.000859358 -1.14857e-21)
(52.0956 -0.000809669 2.99671e-20)
(52.0984 -0.000634724 3.42346e-24)
(52.1016 -0.000264496 3.40013e-20)
(52.105 0.000422931 7.45046e-22)
(52.1088 0.00160598 0)
(52.1127 0.00346669 -5.61744e-22)
(52.1165 0.00628679 -6.29365e-24)
(52.1199 0.0105368 9.29305e-24)
(52.1227 0.0168435 3.06081e-23)
(52.1241 0.0263448 -7.58787e-23)
(52.1233 0.0409804 4.59195e-23)
(52.1185 0.0644447 -6.30314e-20)
(52.1091 0.102424 3.90697e-20)
(52.0868 0.167603 -1.81788e-22)
(52.0472 0.287466 2.80863e-20)
(51.9721 0.485276 4.52583e-20)
(51.8723 0.760661 1.09706e-21)
(51.7397 1.11211 3.15487e-20)
(51.5893 1.53571 0)
(51.4336 2.01988 8.84938e-20)
(51.2857 2.55602 5.81216e-20)
(51.1623 3.13468 1.14811e-20)
(51.0759 3.74487 -6.90509e-20)
(51.036 4.373 2.47791e-20)
(51.0453 5.00266 3.30218e-20)
(51.1026 5.61693 8.59997e-20)
(51.2013 6.19923 5.77067e-20)
(51.331 6.73631 -3.48554e-20)
(51.4795 7.22005 -9.36733e-20)
(51.6361 7.64762 2.35199e-19)
(51.7905 8.02063 -1.28552e-19)
(51.9359 8.34441 -1.64078e-19)
(52.0687 8.62639 1.84384e-19)
(52.1858 8.87437 2.79361e-19)
(52.2929 9.09554 -3.48803e-19)
(52.3886 9.29399 -1.19546e-20)
(52.4829 9.4964 1.30527e-20)
(52.6085 9.4857 4.64012e-19)
(52.0819 -0.00152019 -1.77217e-19)
(52.0829 -0.00092192 6.03981e-23)
(52.0838 -0.000792333 -3.85082e-23)
(52.0846 -0.000714533 -2.97549e-19)
(52.0856 -0.000690434 1.14191e-19)
(52.0867 -0.000702515 -6.07805e-20)
(52.0879 -0.000749799 -1.86336e-24)
(52.0894 -0.000823789 -5.40667e-24)
(52.0912 -0.000886051 -2.71608e-24)
(52.0932 -0.000934228 -1.14967e-21)
(52.0956 -0.000894737 -5.84e-20)
(52.0984 -0.000728331 -5.68369e-24)
(52.1016 -0.000361241 -1.00755e-19)
(52.1051 0.000332915 7.40955e-22)
(52.1088 0.00154053 -1.75776e-24)
(52.1127 0.00345544 -1.52896e-19)
(52.1166 0.00637799 5.72218e-20)
(52.1201 0.0108053 0)
(52.1229 0.0174077 1.52317e-23)
(52.1245 0.0273998 -1.75051e-23)
(52.1238 0.0428524 4.97222e-20)
(52.1194 0.0676709 3.69242e-22)
(52.1108 0.107997 -3.90228e-20)
(52.09 0.177329 -4.69462e-20)
(52.0532 0.305183 -5.6315e-20)
(51.9835 0.516382 -6.6794e-20)
(51.8917 0.810806 -7.86021e-20)
(51.7701 1.18669 -6.6432e-20)
(51.6341 1.63902 -3.96699e-21)
(51.4965 2.15472 -3.908e-20)
(51.3707 2.72314 9.10036e-21)
(51.274 3.33238 -2.44395e-20)
(51.2181 3.96906 6.70362e-20)
(51.2117 4.6174 2.27057e-20)
(51.2558 5.25915 -6.37909e-20)
(51.3467 5.87662 7.85416e-23)
(51.4758 6.45365 0)
(51.6308 6.97848 3.61167e-20)
(51.7993 7.44503 0)
(51.9688 7.85272 1.19834e-19)
(52.1326 8.20529 3.19199e-21)
(52.2808 8.50925 -3.5093e-19)
(52.4143 8.77344 2.29224e-19)
(52.5293 9.00565 2.82492e-19)
(52.632 9.21295 2.3924e-20)
(52.7244 9.39905 -3.70817e-19)
(52.8135 9.59108 0)
(52.9363 9.54872 -4.55422e-19)
(52.082 -0.00156687 3.56771e-19)
(52.0829 -0.00095526 0)
(52.0838 -0.000824993 -1.66649e-19)
(52.0847 -0.000748416 3.00928e-19)
(52.0856 -0.000727259 -1.14208e-19)
(52.0867 -0.000744144 6.37852e-20)
(52.088 -0.000798069 8.43867e-24)
(52.0894 -0.000880528 -2.87511e-20)
(52.0912 -0.000952827 -2.58174e-24)
(52.0932 -0.00101173 -5.19189e-21)
(52.0956 -0.00098283 2.84274e-20)
(52.0984 -0.000825191 0)
(52.1016 -0.000461107 6.67365e-20)
(52.1051 0.000240666 5.88354e-20)
(52.1088 0.00147503 -9.61521e-20)
(52.1128 0.00344857 1.5174e-19)
(52.1167 0.00648086 -3.5123e-22)
(52.1202 0.0110972 1.38185e-24)
(52.1231 0.018015 -9.19142e-24)
(52.1248 0.0285294 -7.62182e-20)
(52.1244 0.0448495 -9.92204e-20)
(52.1205 0.0711003 6.26104e-20)
(52.1126 0.113898 -3.84267e-20)
(52.0935 0.187574 4.64243e-20)
(52.0597 0.323736 2.78272e-20)
(51.9962 0.548775 2.42409e-22)
(51.9132 0.862779 3.85483e-20)
(51.804 1.26363 3.06089e-20)
(51.684 1.74502 3.04648e-21)
(51.5662 2.29217 6.08661e-21)
(51.4645 2.89207 -7.62968e-21)
(51.3962 3.53008 0)
(51.3721 4.19034 8.62316e-20)
(51.3997 4.85492 -6.95829e-20)
(51.4779 5.50412 0)
(51.6007 6.11997 -4.22096e-20)
(51.7573 6.68731 5.68309e-20)
(51.9344 7.1963 -7.0621e-20)
(52.118 7.6433 0)
(52.2985 8.03 1.20542e-19)
(52.4653 8.36167 -1.8672e-19)
(52.6165 8.64683 2.46895e-22)
(52.7449 8.89395 2.89757e-20)
(52.8593 9.11249 0)
(52.9527 9.30728 3.38303e-19)
(53.0441 9.4839 -3.86474e-19)
(53.125 9.6677 4.32736e-19)
(53.2443 9.59834 -4.56672e-19)
(52.0819 -0.00161561 -1.79602e-19)
(52.0829 -0.000989695 0)
(52.0838 -0.00085874 3.35784e-19)
(52.0846 -0.000783478 -3.07656e-19)
(52.0856 -0.000765319 0)
(52.0867 -0.000787152 1.49753e-21)
(52.0879 -0.000847957 -6.66411e-20)