/*--------------------------------*- C++ -*----------------------------------*\
  =========                 |
  \\      /  F ield         | OpenFOAM: The Open Source CFD Toolbox
   \\    /   O peration     | Website:  https://openfoam.org
    \\  /    A nd           | Version:  10
     \\/     M anipulation  |
\*---------------------------------------------------------------------------*/
FoamFile
{
    format      ascii;
    class       volScalarField;
    location    "6.4416e-05";
    object      nut;
}
// * * * * * * * * * * * * * * * * * * * * * * * * * * * * * * * * * * * * * //

dimensions      [0 2 -1 0 0 0 0];

internalField   nonuniform List<scalar> 
7600
(
0.000443131
0.000470777
0.000540599
0.000954762
0.00125596
0.00167454
0.00217967
0.00274835
0.00417104
0.00404536
0.00042993
0.000451843
0.000552803
0.000948438
0.00125553
0.00166918
0.00215023
0.00261735
0.0039685
0.00375628
0.000417886
0.000435788
0.000566382
0.000942704
0.00125538
0.00166582
0.00213956
0.00260996
0.00387415
0.00375878
0.000406717
0.000421745
0.000580137
0.00093696
0.00125521
0.00166424
0.00213556
0.00261405
0.00374395
0.00381072
0.000396477
0.00040953
0.000593984
0.00093168
0.00125558
0.00166433
0.00213536
0.00262427
0.00364541
0.00383669
0.000387169
0.000398914
0.000607485
0.000926925
0.00125636
0.00166534
0.00213705
0.00263727
0.00356532
0.00384187
0.000378565
0.000389746
0.000620156
0.000922847
0.00125725
0.00166646
0.00213948
0.00265068
0.00349651
0.00382914
0.000370643
0.00038221
0.000631957
0.000919861
0.00125844
0.00166817
0.00214253
0.00266313
0.00343715
0.00380617
0.00036424
0.000375934
0.000642228
0.000917776
0.00125991
0.00167039
0.00214543
0.00267372
0.00338735
0.00378089
0.000358101
0.000370122
0.000650202
0.000915916
0.0012612
0.00167208
0.00214756
0.0026816
0.00334717
0.00375899
0.000545235
0.000639807
0.000470343
0.000994527
0.00124949
0.00166401
0.00214068
0.00268282
0.00324262
0.00403394
0.000544078
0.000636671
0.000472103
0.000993991
0.00124993
0.00166421
0.00214056
0.00268464
0.00322545
0.00400321
0.000538176
0.000624446
0.00047443
0.000990958
0.00124891
0.00166267
0.00213848
0.0026867
0.00319084
0.00394449
0.000530987
0.000609234
0.000478465
0.000988051
0.00124863
0.00166158
0.00213625
0.00268969
0.00314061
0.00386306
0.000521623
0.000590585
0.000483754
0.000984292
0.00124821
0.00165992
0.00213253
0.00269186
0.00307496
0.00376294
0.000510815
0.000570088
0.000490343
0.00097994
0.00124782
0.00165775
0.00212715
0.00269144
0.00299317
0.00364555
0.000499218
0.000548749
0.000498114
0.000975474
0.00124762
0.00165524
0.0021201
0.00268642
0.00289358
0.00350872
0.000487322
0.000527762
0.000507229
0.000970452
0.00124816
0.0016539
0.00211234
0.00267547
0.00277227
0.00335309
0.00047534
0.000507278
0.000517236
0.000964989
0.0012491
0.00165474
0.00210885
0.00266026
0.00259337
0.00310293
0.000464135
0.000489618
0.000528474
0.000959775
0.00125218
0.00166287
0.00212925
0.00273253
0.00243454
0.00318782
0.00567611
0.00828183
0.0112148
0.013443
0.0152003
0.0165297
0.0175273
0.0182742
0.0188279
0.0192381
0.0195507
0.0197815
0.0199686
0.0201204
0.0202407
0.0203375
0.0204159
0.0204798
0.0205317
0.0205741
0.0206094
0.020639
0.0206638
0.0206843
0.0207013
0.0207156
0.0207276
0.0207376
0.0207461
0.0207532
0.0207593
0.0207644
0.0207687
0.0207724
0.0207755
0.0207781
0.0207803
0.0207822
0.0207838
0.0207852
0.0207864
0.0207874
0.0207882
0.020789
0.0207896
0.0207901
0.0207906
0.020791
0.0207913
0.0207916
0.0207918
0.020792
0.0207922
0.0207923
0.0207924
0.0207926
0.0207927
0.0207927
0.0207928
0.0207929
0.0207929
0.020793
0.020793
0.0207931
0.0207931
0.0207931
0.0207932
0.0207932
0.0207932
0.0207933
0.0207933
0.0207933
0.0207933
0.0207933
0.0207933
0.0207934
0.0207924
0.020791
0.0207917
0.0207858
0.00567032
0.00824762
0.0112036
0.0134148
0.015174
0.0165064
0.0175072
0.0182574
0.0188229
0.0192375
0.01955
0.0197881
0.0199687
0.0201194
0.0202397
0.0203366
0.0204151
0.020479
0.020531
0.0205735
0.0206088
0.0206386
0.0206634
0.020684
0.0207011
0.0207154
0.0207274
0.0207374
0.0207459
0.0207531
0.0207592
0.0207643
0.0207686
0.0207723
0.0207754
0.0207781
0.0207803
0.0207822
0.0207838
0.0207852
0.0207864
0.0207874
0.0207882
0.020789
0.0207896
0.0207901
0.0207906
0.020791
0.0207913
0.0207916
0.0207918
0.020792
0.0207922
0.0207923
0.0207924
0.0207926
0.0207927
0.0207927
0.0207928
0.0207929
0.0207929
0.020793
0.020793
0.0207931
0.0207931
0.0207931
0.0207932
0.0207932
0.0207932
0.0207933
0.0207933
0.0207933
0.0207933
0.0207933
0.0207933
0.0207934
0.0207924
0.020791
0.0207917
0.0207858
0.00566444
0.00818308
0.0111794
0.0133579
0.015121
0.01646
0.0174673
0.0182227
0.0187991
0.0192262
0.0195422
0.0197954
0.0199723
0.0201183
0.0202381
0.0203349
0.0204134
0.0204776
0.0205298
0.0205724
0.0206078
0.0206377
0.0206627
0.0206834
0.0207006
0.020715
0.020727
0.0207371
0.0207457
0.0207529
0.020759
0.0207642
0.0207685
0.0207722
0.0207753
0.020778
0.0207802
0.0207821
0.0207838
0.0207852
0.0207863
0.0207873
0.0207882
0.0207889
0.0207896
0.0207901
0.0207906
0.0207909
0.0207913
0.0207915
0.0207918
0.020792
0.0207922
0.0207923
0.0207924
0.0207926
0.0207927
0.0207927
0.0207928
0.0207929
0.0207929
0.020793
0.020793
0.0207931
0.0207931
0.0207931
0.0207932
0.0207932
0.0207932
0.0207933
0.0207933
0.0207933
0.0207933
0.0207933
0.0207933
0.0207934
0.0207924
0.020791
0.0207917
0.0207858
0.00566797
0.00809707
0.0111392
0.013272
0.0150412
0.0163911
0.0174083
0.0181719
0.0187503
0.0192069
0.0195375
0.0197959
0.0199894
0.0201201
0.0202373
0.0203332
0.0204114
0.0204758
0.020528
0.0205707
0.0206062
0.0206364
0.0206617
0.0206825
0.0206998
0.0207143
0.0207264
0.0207367
0.0207453
0.0207526
0.0207587
0.0207639
0.0207683
0.020772
0.0207752
0.0207779
0.0207801
0.0207821
0.0207837
0.0207851
0.0207863
0.0207873
0.0207882
0.0207889
0.0207895
0.0207901
0.0207905
0.0207909
0.0207913
0.0207915
0.0207918
0.020792
0.0207921
0.0207923
0.0207924
0.0207926
0.0207927
0.0207927
0.0207928
0.0207929
0.0207929
0.020793
0.020793
0.0207931
0.0207931
0.0207931
0.0207932
0.0207932
0.0207932
0.0207933
0.0207933
0.0207933
0.0207933
0.0207933
0.0207933
0.0207934
0.0207924
0.020791
0.0207917
0.0207859
0.0056922
0.00800407
0.0110787
0.013157
0.0149339
0.0163
0.0173328
0.0181093
0.0186914
0.0191627
0.0195284
0.0197852
0.0200058
0.0201454
0.0202423
0.0203334
0.0204102
0.0204741
0.0205262
0.0205688
0.0206042
0.0206348
0.0206604
0.0206814
0.0206988
0.0207134
0.0207257
0.020736
0.0207447
0.0207521
0.0207583
0.0207636
0.020768
0.0207718
0.020775
0.0207777
0.02078
0.0207819
0.0207836
0.020785
0.0207862
0.0207872
0.0207881
0.0207889
0.0207895
0.0207901
0.0207905
0.0207909
0.0207912
0.0207915
0.0207918
0.020792
0.0207921
0.0207923
0.0207924
0.0207926
0.0207927
0.0207927
0.0207928
0.0207929
0.0207929
0.020793
0.020793
0.0207931
0.0207931
0.0207931
0.0207932
0.0207932
0.0207932
0.0207933
0.0207933
0.0207933
0.0207933
0.0207933
0.0207933
0.0207934
0.0207924
0.020791
0.0207917
0.0207859
0.00574726
0.0079264
0.010992
0.0130138
0.0147997
0.0161879
0.0172429
0.0180356
0.0186294
0.019085
0.0194728
0.0197681
0.0199922
0.0201689
0.020276
0.0203491
0.0204136
0.0204745
0.0205256
0.0205674
0.0206023
0.0206331
0.020659
0.0206801
0.0206977
0.0207124
0.0207248
0.0207353
0.0207441
0.0207515
0.0207578
0.0207632
0.0207677
0.0207715
0.0207747
0.0207775
0.0207798
0.0207818
0.0207835
0.0207849
0.0207861
0.0207872
0.0207881
0.0207888
0.0207895
0.02079
0.0207905
0.0207909
0.0207912
0.0207915
0.0207917
0.020792
0.0207921
0.0207923
0.0207924
0.0207925
0.0207927
0.0207927
0.0207928
0.0207929
0.0207929
0.020793
0.020793
0.0207931
0.0207931
0.0207931
0.0207932
0.0207932
0.0207932
0.0207933
0.0207933
0.0207933
0.0207933
0.0207933
0.0207933
0.0207934
0.0207925
0.020791
0.0207917
0.0207859
0.00583765
0.00789274
0.010859
0.0128196
0.014607
0.0160192
0.0171022
0.017919
0.0185316
0.0189838
0.0193499
0.0196729
0.0199174
0.0201266
0.02028
0.0203754
0.0204406
0.0204838
0.0205257
0.0205639
0.0205973
0.0206291
0.0206559
0.0206776
0.0206955
0.0207106
0.0207232
0.0207339
0.0207429
0.0207505
0.020757
0.0207624
0.0207671
0.020771
0.0207743
0.0207771
0.0207795
0.0207815
0.0207832
0.0207847
0.0207859
0.020787
0.0207879
0.0207887
0.0207894
0.0207899
0.0207904
0.0207908
0.0207912
0.0207915
0.0207917
0.0207919
0.0207921
0.0207923
0.0207924
0.0207925
0.0207926
0.0207927
0.0207928
0.0207929
0.0207929
0.020793
0.020793
0.0207931
0.0207931
0.0207931
0.0207932
0.0207932
0.0207932
0.0207933
0.0207933
0.0207933
0.0207933
0.0207933
0.0207933
0.0207934
0.0207925
0.020791
0.0207917
0.020786
0.00589009
0.00793888
0.010754
0.0127897
0.014679
0.0161849
0.017329
0.0181754
0.0187946
0.019239
0.0195565
0.0198153
0.020042
0.0202321
0.0203936
0.0205012
0.0205664
0.020606
0.0206299
0.0206517
0.0206699
0.0206812
0.0206916
0.0207024
0.0207132
0.0207235
0.0207329
0.0207414
0.0207488
0.0207552
0.0207607
0.0207655
0.0207696
0.0207731
0.0207761
0.0207786
0.0207808
0.0207826
0.0207842
0.0207856
0.0207867
0.0207877
0.0207885
0.0207892
0.0207898
0.0207903
0.0207908
0.0207912
0.0207915
0.0207918
0.020792
0.0207922
0.0207923
0.0207925
0.0207926
0.0207927
0.0207928
0.0207929
0.0207929
0.020793
0.020793
0.0207931
0.0207931
0.0207932
0.0207932
0.0207932
0.0207932
0.0207933
0.0207933
0.0207933
0.0207933
0.0207933
0.0207933
0.0207933
0.0207933
0.0207934
0.0207925
0.020791
0.0207917
0.020786
0.0062892
0.00816445
0.0100904
0.0115768
0.01308
0.014427
0.015582
0.0165437
0.0173304
0.0179648
0.018465
0.0188586
0.019191
0.0194727
0.019728
0.0199317
0.0201057
0.0202542
0.0203653
0.0204476
0.020508
0.0205433
0.0205782
0.02061
0.0206377
0.0206618
0.0206824
0.0207
0.0207149
0.0207275
0.0207381
0.020747
0.0207545
0.0207608
0.0207661
0.0207706
0.0207743
0.0207774
0.02078
0.0207822
0.020784
0.0207855
0.0207868
0.0207878
0.0207887
0.0207894
0.02079
0.0207906
0.020791
0.0207914
0.0207917
0.020792
0.0207922
0.0207924
0.0207925
0.0207926
0.0207927
0.0207928
0.0207929
0.020793
0.020793
0.0207931
0.0207931
0.0207931
0.0207932
0.0207932
0.0207932
0.0207932
0.0207932
0.0207933
0.0207933
0.0207933
0.0207933
0.0207933
0.0207933
0.0207934
0.0207925
0.020791
0.0207917
0.0207861
0.00618239
0.00885407
0.0100712
0.0117541
0.0133142
0.0146754
0.0158108
0.0167371
0.0174851
0.0180854
0.018564
0.0189414
0.0192327
0.0194745
0.0196863
0.0198658
0.0200304
0.0201786
0.0202936
0.0203847
0.0204567
0.0205208
0.0205732
0.0206144
0.0206466
0.0206721
0.0206927
0.0207095
0.0207235
0.020735
0.0207446
0.0207526
0.0207593
0.0207649
0.0207696
0.0207735
0.0207768
0.0207796
0.0207819
0.0207838
0.0207854
0.0207867
0.0207878
0.0207887
0.0207895
0.0207901
0.0207906
0.0207911
0.0207915
0.0207918
0.0207921
0.0207923
0.0207925
0.0207926
0.0207928
0.0207929
0.0207929
0.020793
0.0207931
0.0207931
0.0207931
0.0207932
0.0207932
0.0207932
0.0207932
0.0207933
0.0207933
0.0207933
0.0207933
0.0207933
0.0207933
0.0207933
0.0207933
0.0207933
0.0207934
0.0207934
0.0207925
0.020791
0.0207917
0.0207862
0.00601061
0.00843214
0.0102895
0.0124234
0.014265
0.0157508
0.0168926
0.0177521
0.0183979
0.0188861
0.0192581
0.0195443
0.0197671
0.0199407
0.0200749
0.0201951
0.0202956
0.0203777
0.0204473
0.0205054
0.020553
0.0205979
0.0206346
0.0206633
0.0206859
0.0207041
0.0207189
0.0207311
0.0207412
0.0207497
0.0207567
0.0207627
0.0207676
0.0207718
0.0207753
0.0207782
0.0207807
0.0207828
0.0207845
0.020786
0.0207872
0.0207883
0.0207891
0.0207899
0.0207905
0.020791
0.0207914
0.0207917
0.020792
0.0207922
0.0207923
0.0207924
0.0207925
0.0207926
0.0207926
0.0207927
0.0207927
0.0207928
0.0207928
0.0207928
0.0207929
0.0207929
0.020793
0.020793
0.0207931
0.0207931
0.0207932
0.0207932
0.0207933
0.0207933
0.0207933
0.0207933
0.0207934
0.0207934
0.0207934
0.0207934
0.0207925
0.020791
0.0207918
0.0207862
0.0103342
0.00986758
0.0120072
0.0134362
0.0146781
0.0157451
0.0166435
0.0173905
0.018005
0.0185072
0.0189157
0.0192474
0.0195172
0.0197373
0.0199177
0.0200654
0.0201881
0.0202902
0.0203752
0.0204456
0.0205035
0.0205504
0.02059
0.0206234
0.0206513
0.0206746
0.0206939
0.0207101
0.0207236
0.0207349
0.0207444
0.0207523
0.020759
0.0207646
0.0207692
0.0207732
0.0207765
0.0207792
0.0207815
0.0207835
0.0207851
0.0207865
0.0207876
0.0207886
0.0207894
0.0207901
0.0207906
0.0207911
0.0207915
0.0207918
0.0207921
0.0207923
0.0207925
0.0207927
0.0207928
0.0207929
0.020793
0.0207931
0.0207931
0.0207932
0.0207932
0.0207932
0.0207933
0.0207933
0.0207933
0.0207933
0.0207933
0.0207933
0.0207933
0.0207934
0.0207934
0.0207934
0.0207934
0.0207934
0.0207934
0.0207934
0.0207925
0.020791
0.0207918
0.0207861
0.0106801
0.0104835
0.0125055
0.0138767
0.0151138
0.0161672
0.0170427
0.0177566
0.0183323
0.0187944
0.0191641
0.0194603
0.0196983
0.0198906
0.0200468
0.0201746
0.0202798
0.0203666
0.0204384
0.0204976
0.0205464
0.0205867
0.0206204
0.0206486
0.020672
0.0206915
0.0207078
0.0207215
0.0207329
0.0207425
0.0207505
0.0207573
0.020763
0.0207678
0.0207718
0.0207752
0.0207781
0.0207805
0.0207825
0.0207842
0.0207857
0.0207869
0.0207879
0.0207888
0.0207895
0.0207901
0.0207906
0.0207911
0.0207914
0.0207917
0.020792
0.0207922
0.0207924
0.0207926
0.0207927
0.0207928
0.0207929
0.020793
0.0207931
0.0207931
0.0207932
0.0207932
0.0207932
0.0207933
0.0207933
0.0207933
0.0207933
0.0207933
0.0207934
0.0207934
0.0207934
0.0207934
0.0207934
0.0207934
0.0207934
0.0207934
0.0207925
0.020791
0.0207918
0.0207861
0.0117522
0.0118576
0.0136342
0.0147636
0.0157822
0.0166527
0.0173844
0.0179916
0.0184911
0.0188993
0.0192325
0.0195042
0.019726
0.0199077
0.020057
0.0201802
0.0202823
0.020367
0.0204374
0.0204959
0.0205444
0.0205848
0.0206185
0.0206467
0.0206703
0.02069
0.0207065
0.0207204
0.0207319
0.0207417
0.0207499
0.0207567
0.0207625
0.0207674
0.0207715
0.0207749
0.0207778
0.0207803
0.0207823
0.0207841
0.0207856
0.0207868
0.0207878
0.0207887
0.0207895
0.0207901
0.0207906
0.020791
0.0207914
0.0207917
0.020792
0.0207922
0.0207924
0.0207926
0.0207927
0.0207928
0.0207929
0.020793
0.0207931
0.0207931
0.0207932
0.0207932
0.0207932
0.0207933
0.0207933
0.0207933
0.0207933
0.0207933
0.0207934
0.0207934
0.0207934
0.0207934
0.0207934
0.0207934
0.0207934
0.0207934
0.0207925
0.020791
0.0207918
0.0207861
0.0128193
0.0130575
0.0145421
0.0154717
0.016321
0.0170537
0.0176778
0.0182034
0.0186421
0.0190068
0.0193087
0.019558
0.0197643
0.0199351
0.0200767
0.0201944
0.0202924
0.0203742
0.0204424
0.0204993
0.0205468
0.0205865
0.0206197
0.0206476
0.0206709
0.0206904
0.0207068
0.0207205
0.0207321
0.0207418
0.0207499
0.0207568
0.0207625
0.0207674
0.0207715
0.0207749
0.0207778
0.0207803
0.0207823
0.0207841
0.0207856
0.0207868
0.0207878
0.0207887
0.0207894
0.0207901
0.0207906
0.020791
0.0207914
0.0207917
0.020792
0.0207922
0.0207924
0.0207926
0.0207927
0.0207928
0.0207929
0.020793
0.0207931
0.0207931
0.0207932
0.0207932
0.0207932
0.0207933
0.0207933
0.0207933
0.0207933
0.0207933
0.0207934
0.0207934
0.0207934
0.0207934
0.0207934
0.0207934
0.0207934
0.0207934
0.0207925
0.020791
0.0207918
0.0207861
0.013896
0.0141802
0.0153743
0.016123
0.0168188
0.0174279
0.0179548
0.0184058
0.0187889
0.0191123
0.019384
0.0196121
0.019803
0.0199627
0.0200964
0.0202085
0.0203025
0.0203813
0.0204474
0.0205028
0.0205492
0.0205882
0.0206209
0.0206483
0.0206714
0.0206907
0.020707
0.0207206
0.0207321
0.0207418
0.0207499
0.0207568
0.0207625
0.0207674
0.0207715
0.0207749
0.0207778
0.0207803
0.0207823
0.0207841
0.0207855
0.0207868
0.0207878
0.0207887
0.0207894
0.0207901
0.0207906
0.020791
0.0207914
0.0207917
0.020792
0.0207922
0.0207924
0.0207926
0.0207927
0.0207928
0.0207929
0.020793
0.0207931
0.0207931
0.0207932
0.0207932
0.0207932
0.0207933
0.0207933
0.0207933
0.0207933
0.0207933
0.0207934
0.0207934
0.0207934
0.0207934
0.0207934
0.0207934
0.0207934
0.0207934
0.0207925
0.020791
0.0207918
0.0207861
0.0149033
0.0151815
0.0161126
0.0167047
0.0172667
0.0177679
0.0182096
0.0185946
0.0189275
0.0192132
0.0194573
0.0196649
0.019841
0.0199901
0.0201162
0.0202227
0.0203126
0.0203885
0.0204524
0.0205063
0.0205517
0.0205899
0.020622
0.0206491
0.0206719
0.0206911
0.0207072
0.0207208
0.0207322
0.0207419
0.02075
0.0207568
0.0207625
0.0207674
0.0207715
0.0207749
0.0207778
0.0207803
0.0207823
0.0207841
0.0207855
0.0207868
0.0207878
0.0207887
0.0207894
0.0207901
0.0207906
0.020791
0.0207914
0.0207917
0.020792
0.0207922
0.0207924
0.0207926
0.0207927
0.0207928
0.0207929
0.020793
0.0207931
0.0207931
0.0207932
0.0207932
0.0207932
0.0207933
0.0207933
0.0207933
0.0207933
0.0207933
0.0207934
0.0207934
0.0207934
0.0207934
0.0207934
0.0207934
0.0207934
0.0207934
0.0207925
0.020791
0.0207918
0.0207861
0.0158045
0.0160506
0.0167576
0.0172176
0.0176653
0.0180737
0.0184413
0.0187684
0.0190565
0.0193084
0.019527
0.0197158
0.019878
0.0200169
0.0201356
0.0202366
0.0203226
0.0203956
0.0204575
0.0205099
0.0205542
0.0205916
0.0206233
0.0206499
0.0206725
0.0206914
0.0207075
0.0207209
0.0207323
0.0207419
0.02075
0.0207568
0.0207625
0.0207674
0.0207715
0.0207749
0.0207778
0.0207803
0.0207823
0.0207841
0.0207855
0.0207868
0.0207878
0.0207887
0.0207894
0.0207901
0.0207906
0.020791
0.0207914
0.0207917
0.020792
0.0207922
0.0207924
0.0207926
0.0207927
0.0207928
0.0207929
0.020793
0.0207931
0.0207931
0.0207932
0.0207932
0.0207932
0.0207933
0.0207933
0.0207933
0.0207933
0.0207933
0.0207934
0.0207934
0.0207934
0.0207934
0.0207934
0.0207934
0.0207934
0.0207934
0.0207926
0.020791
0.0207918
0.0207861
0.0165872
0.0167903
0.0173141
0.0176649
0.0180166
0.0183459
0.0186499
0.0189265
0.0191753
0.0193969
0.0195925
0.0197639
0.0199132
0.0200426
0.0201542
0.0202502
0.0203324
0.0204026
0.0204625
0.0205134
0.0205567
0.0205934
0.0206245
0.0206508
0.020673
0.0206918
0.0207077
0.0207211
0.0207324
0.020742
0.02075
0.0207568
0.0207626
0.0207674
0.0207715
0.0207749
0.0207778
0.0207803
0.0207823
0.0207841
0.0207855
0.0207868
0.0207878
0.0207887
0.0207894
0.0207901
0.0207906
0.020791
0.0207914
0.0207917
0.020792
0.0207922
0.0207924
0.0207926
0.0207927
0.0207928
0.0207929
0.020793
0.0207931
0.0207931
0.0207932
0.0207932
0.0207932
0.0207933
0.0207933
0.0207933
0.0207933
0.0207933
0.0207934
0.0207934
0.0207934
0.0207934
0.0207934
0.0207934
0.0207934
0.0207934
0.0207926
0.020791
0.0207918
0.0207861
0.0172545
0.0174118
0.0177897
0.0180514
0.0183233
0.0185861
0.0188358
0.0190688
0.0192832
0.019478
0.0196531
0.0198089
0.0199464
0.0200669
0.020172
0.0202631
0.0203417
0.0204093
0.0204673
0.0205169
0.0205591
0.0205951
0.0206257
0.0206516
0.0206736
0.0206922
0.020708
0.0207213
0.0207325
0.020742
0.0207501
0.0207568
0.0207626
0.0207674
0.0207715
0.0207749
0.0207778
0.0207803
0.0207823
0.0207841
0.0207855
0.0207868
0.0207878
0.0207887
0.0207894
0.02079
0.0207906
0.020791
0.0207914
0.0207917
0.020792
0.0207922
0.0207924
0.0207926
0.0207927
0.0207928
0.0207929
0.020793
0.020793
0.0207931
0.0207932
0.0207932
0.0207932
0.0207933
0.0207933
0.0207933
0.0207933
0.0207933
0.0207934
0.0207934
0.0207934
0.0207934
0.0207934
0.0207934
0.0207934
0.0207933
0.0207926
0.020791
0.0207918
0.0207861
0.0178173
0.0179301
0.0181935
0.0183829
0.018589
0.0187963
0.0189999
0.0191956
0.0193802
0.0195516
0.0197084
0.0198502
0.0199771
0.0200896
0.0201886
0.0202752
0.0203505
0.0204157
0.0204719
0.0205201
0.0205615
0.0205967
0.0206268
0.0206524
0.0206741
0.0206926
0.0207082
0.0207214
0.0207326
0.0207421
0.0207501
0.0207569
0.0207626
0.0207674
0.0207715
0.0207749
0.0207778
0.0207802
0.0207823
0.020784
0.0207855
0.0207868
0.0207878
0.0207887
0.0207894
0.02079
0.0207906
0.020791
0.0207914
0.0207917
0.020792
0.0207922
0.0207924
0.0207926
0.0207927
0.0207928
0.0207929
0.020793
0.020793
0.0207931
0.0207932
0.0207932
0.0207932
0.0207933
0.0207933
0.0207933
0.0207933
0.0207933
0.0207934
0.0207934
0.0207934
0.0207934
0.0207934
0.0207934
0.0207934
0.0207933
0.0207926
0.020791
0.0207918
0.0207861
0.0182898
0.0183608
0.0185346
0.0186654
0.0188173
0.0189784
0.0191434
0.0193074
0.0194664
0.0196174
0.0197583
0.0198877
0.0200051
0.0201104
0.020204
0.0202865
0.0203588
0.0204217
0.0204762
0.0205232
0.0205637
0.0205983
0.0206279
0.0206532
0.0206747
0.0206929
0.0207085
0.0207216
0.0207327
0.0207422
0.0207502
0.0207569
0.0207626
0.0207674
0.0207715
0.0207749
0.0207778
0.0207802
0.0207823
0.020784
0.0207855
0.0207867
0.0207878
0.0207887
0.0207894
0.02079
0.0207906
0.020791
0.0207914
0.0207917
0.020792
0.0207922
0.0207924
0.0207926
0.0207927
0.0207928
0.0207929
0.020793
0.020793
0.0207931
0.0207932
0.0207932
0.0207932
0.0207933
0.0207933
0.0207933
0.0207933
0.0207933
0.0207934
0.0207934
0.0207934
0.0207934
0.0207934
0.0207934
0.0207934
0.0207933
0.0207926
0.020791
0.0207918
0.0207861
0.0186852
0.0187177
0.0188211
0.0189042
0.0190119
0.0191347
0.0192674
0.0194047
0.019542
0.0196756
0.0198026
0.0199212
0.0200303
0.0201292
0.0202179
0.0202967
0.0203663
0.0204271
0.0204801
0.0205261
0.0205657
0.0205997
0.0206289
0.0206539
0.0206752
0.0206933
0.0207087
0.0207218
0.0207328
0.0207422
0.0207502
0.0207569
0.0207626
0.0207674
0.0207715
0.0207749
0.0207778
0.0207802
0.0207823
0.020784
0.0207855
0.0207867
0.0207878
0.0207887
0.0207894
0.02079
0.0207906
0.020791
0.0207914
0.0207917
0.020792
0.0207922
0.0207924
0.0207926
0.0207927
0.0207928
0.0207929
0.020793
0.020793
0.0207931
0.0207932
0.0207932
0.0207932
0.0207933
0.0207933
0.0207933
0.0207933
0.0207933
0.0207933
0.0207934
0.0207934
0.0207934
0.0207934
0.0207934
0.0207934
0.0207933
0.0207926
0.020791
0.0207918
0.0207861
0.0190159
0.019013
0.0190603
0.0191044
0.0191759
0.0192673
0.0193732
0.0194882
0.0196072
0.019726
0.0198413
0.0199506
0.0200524
0.0201458
0.0202302
0.0203059
0.020373
0.020432
0.0204837
0.0205286
0.0205675
0.0206011
0.0206299
0.0206545
0.0206756
0.0206936
0.0207089
0.0207219
0.0207329
0.0207423
0.0207502
0.0207569
0.0207626
0.0207674
0.0207715
0.0207749
0.0207778
0.0207802
0.0207823
0.020784
0.0207855
0.0207867
0.0207878
0.0207887
0.0207894
0.02079
0.0207906
0.020791
0.0207914
0.0207917
0.020792
0.0207922
0.0207924
0.0207926
0.0207927
0.0207928
0.0207929
0.020793
0.020793
0.0207931
0.0207932
0.0207932
0.0207932
0.0207933
0.0207933
0.0207933
0.0207933
0.0207933
0.0207933
0.0207934
0.0207934
0.0207934
0.0207934
0.0207934
0.0207934
0.0207933
0.0207926
0.020791
0.0207918
0.0207861
0.0192921
0.0192561
0.0192582
0.0192702
0.0193121
0.0193778
0.0194618
0.0195585
0.0196624
0.0197689
0.0198743
0.0199758
0.0200715
0.0201601
0.020241
0.0203138
0.0203788
0.0204363
0.0204868
0.0205309
0.0205692
0.0206022
0.0206307
0.0206551
0.020676
0.0206939
0.0207091
0.020722
0.020733
0.0207423
0.0207503
0.020757
0.0207626
0.0207674
0.0207715
0.0207749
0.0207778
0.0207802
0.0207823
0.020784
0.0207855
0.0207867
0.0207878
0.0207887
0.0207894
0.02079
0.0207906
0.020791
0.0207914
0.0207917
0.020792
0.0207922
0.0207924
0.0207925
0.0207927
0.0207928
0.0207929
0.020793
0.020793
0.0207931
0.0207932
0.0207932
0.0207932
0.0207933
0.0207933
0.0207933
0.0207933
0.0207933
0.0207933
0.0207934
0.0207934
0.0207934
0.0207934
0.0207934
0.0207934
0.0207933
0.0207926
0.020791
0.0207918
0.0207861
0.0195211
0.019454
0.019419
0.0194046
0.0194227
0.0194678
0.0195343
0.0196162
0.0197078
0.0198044
0.0199017
0.0199969
0.0200875
0.0201722
0.02025
0.0203205
0.0203838
0.02044
0.0204895
0.0205328
0.0205705
0.0206032
0.0206314
0.0206556
0.0206764
0.0206941
0.0207092
0.0207221
0.0207331
0.0207424
0.0207503
0.020757
0.0207626
0.0207674
0.0207715
0.0207749
0.0207778
0.0207802
0.0207823
0.020784
0.0207855
0.0207867
0.0207878
0.0207887
0.0207894
0.02079
0.0207906
0.020791
0.0207914
0.0207917
0.020792
0.0207922
0.0207924
0.0207925
0.0207927
0.0207928
0.0207929
0.020793
0.020793
0.0207931
0.0207932
0.0207932
0.0207932
0.0207933
0.0207933
0.0207933
0.0207933
0.0207933
0.0207933
0.0207934
0.0207934
0.0207934
0.0207934
0.0207934
0.0207934
0.0207933
0.0207926
0.020791
0.0207918
0.0207861
0.0197074
0.0196114
0.0195458
0.0195101
0.0195095
0.0195385
0.0195913
0.0196617
0.0197439
0.0198326
0.0199236
0.0200137
0.0201003
0.0201818
0.0202572
0.0203259
0.0203878
0.0204429
0.0204916
0.0205344
0.0205717
0.020604
0.020632
0.020656
0.0206766
0.0206943
0.0207094
0.0207222
0.0207332
0.0207424
0.0207503
0.020757
0.0207626
0.0207674
0.0207715
0.0207749
0.0207778
0.0207802
0.0207823
0.020784
0.0207855
0.0207867
0.0207878
0.0207887
0.0207894
0.02079
0.0207906
0.020791
0.0207914
0.0207917
0.020792
0.0207922
0.0207924
0.0207925
0.0207927
0.0207928
0.0207929
0.020793
0.020793
0.0207931
0.0207932
0.0207932
0.0207932
0.0207933
0.0207933
0.0207933
0.0207933
0.0207933
0.0207933
0.0207934
0.0207934
0.0207934
0.0207934
0.0207934
0.0207934
0.0207933
0.0207926
0.020791
0.0207918
0.0207861
0.0198521
0.01973
0.0196402
0.0195883
0.0195736
0.0195908
0.0196336
0.0196956
0.0197707
0.0198536
0.0199399
0.0200263
0.0201099
0.0201891
0.0202627
0.02033
0.0203908
0.0204451
0.0204933
0.0205356
0.0205725
0.0206046
0.0206324
0.0206563
0.0206769
0.0206945
0.0207095
0.0207223
0.0207332
0.0207425
0.0207503
0.020757
0.0207626
0.0207674
0.0207715
0.0207749
0.0207778
0.0207802
0.0207823
0.020784
0.0207855
0.0207867
0.0207878
0.0207887
0.0207894
0.02079
0.0207906
0.020791
0.0207914
0.0207917
0.020792
0.0207922
0.0207924
0.0207925
0.0207927
0.0207928
0.0207929
0.020793
0.020793
0.0207931
0.0207932
0.0207932
0.0207932
0.0207933
0.0207933
0.0207933
0.0207933
0.0207933
0.0207933
0.0207934
0.0207934
0.0207934
0.0207934
0.0207934
0.0207934
0.0207933
0.0207926
0.020791
0.0207918
0.0207861
0.0199526
0.0198097
0.0197029
0.0196399
0.0196159
0.0196253
0.0196615
0.019718
0.0197884
0.0198676
0.0199508
0.0200346
0.0201163
0.020194
0.0202664
0.0203328
0.0203928
0.0204466
0.0204944
0.0205364
0.0205731
0.020605
0.0206327
0.0206565
0.020677
0.0206946
0.0207096
0.0207223
0.0207332
0.0207425
0.0207503
0.020757
0.0207626
0.0207674
0.0207715
0.0207749
0.0207778
0.0207802
0.0207823
0.020784
0.0207855
0.0207867
0.0207878
0.0207887
0.0207894
0.02079
0.0207906
0.020791
0.0207914
0.0207917
0.020792
0.0207922
0.0207924
0.0207925
0.0207927
0.0207928
0.0207929
0.020793
0.020793
0.0207931
0.0207932
0.0207932
0.0207932
0.0207933
0.0207933
0.0207933
0.0207933
0.0207933
0.0207933
0.0207934
0.0207934
0.0207934
0.0207934
0.0207934
0.0207934
0.0207933
0.0207926
0.020791
0.0207918
0.0207861
0.0199998
0.0198489
0.019734
0.0196656
0.019637
0.0196425
0.0196754
0.0197291
0.0197973
0.0198745
0.0199563
0.0200388
0.0201196
0.0201964
0.0202682
0.0203341
0.0203939
0.0204474
0.0204949
0.0205368
0.0205734
0.0206052
0.0206328
0.0206566
0.0206771
0.0206946
0.0207096
0.0207224
0.0207332
0.0207425
0.0207503
0.020757
0.0207626
0.0207674
0.0207715
0.0207749
0.0207778
0.0207802
0.0207823
0.020784
0.0207855
0.0207867
0.0207878
0.0207887
0.0207894
0.02079
0.0207906
0.020791
0.0207914
0.0207917
0.020792
0.0207922
0.0207924
0.0207925
0.0207927
0.0207928
0.0207929
0.020793
0.020793
0.0207931
0.0207932
0.0207932
0.0207932
0.0207933
0.0207933
0.0207933
0.0207933
0.0207933
0.0207933
0.0207934
0.0207934
0.0207934
0.0207934
0.0207934
0.0207934
0.0207933
0.0207926
0.020791
0.0207918
0.0207861
0.00516127
0.00513176
0.00509516
0.00504009
0.00495138
0.00481567
0.0046202
0.00454184
0.00343267
0.00347713
0.00677723
0.00681139
0.00687645
0.00697524
0.00710975
0.00727961
0.00746032
0.00805968
0.00565352
0.00651784
0.00906758
0.00901996
0.00898098
0.00895214
0.00893526
0.00893105
0.00892524
0.00930154
0.00688929
0.0077052
0.0110378
0.0109923
0.0109467
0.010904
0.0108641
0.0108251
0.0107719
0.0110014
0.00862763
0.00937359
0.0127466
0.0126972
0.01264
0.0125783
0.0125119
0.0124402
0.0123518
0.0124619
0.0103872
0.0110537
0.0141714
0.0141232
0.0140627
0.0139941
0.0139171
0.0138304
0.0137276
0.0137593
0.0120592
0.0126188
0.0153379
0.0152946
0.0152374
0.01517
0.0150927
0.0150053
0.0149035
0.01489
0.0135582
0.0140068
0.0162878
0.0162503
0.0161994
0.0161384
0.0160675
0.0159869
0.0158933
0.0158578
0.014848
0.0151956
0.0170632
0.0170312
0.016987
0.0169341
0.0168721
0.016801
0.0167202
0.016676
0.0159254
0.0161884
0.0176986
0.0176724
0.0176351
0.0175901
0.0175371
0.0174762
0.0174068
0.0173615
0.016811
0.0170061
0.0182242
0.0182027
0.0181716
0.0181334
0.0180887
0.0180369
0.0179778
0.0179351
0.0175335
0.0176743
0.0186637
0.0186458
0.0186197
0.0185876
0.0185491
0.0185046
0.0184544
0.0184151
0.0181207
0.0182193
0.019035
0.0190203
0.0189984
0.0189707
0.0189367
0.0188978
0.0188547
0.0188187
0.0186005
0.0186653
0.0193536
0.0193412
0.0193218
0.0192971
0.0192673
0.0192324
0.0191931
0.0191594
0.018995
0.0190323
0.0196313
0.0196204
0.0196029
0.01958
0.0195521
0.0195196
0.0194824
0.0194488
0.0193217
0.0193359
0.0198773
0.0198671
0.0198507
0.0198285
0.0198005
0.0197682
0.0197318
0.019697
0.0195945
0.0195878
0.0201001
0.0200898
0.0200725
0.0200492
0.0200197
0.0199849
0.019946
0.019908
0.0198229
0.019796
0.0203065
0.0202959
0.0202762
0.0202488
0.0202149
0.0201751
0.0201305
0.0200859
0.0200114
0.0199635
0.0204907
0.0204731
0.0204419
0.020401
0.0203536
0.0203028
0.0202511
0.0202014
0.0201392
0.0200801
0.0207092
0.0206781
0.0206283
0.0205706
0.0205091
0.020445
0.0203785
0.0203095
0.0202326
0.0201439
0.00358959
0.00348041
0.00277936
0.00217931
0.00168094
0.00126416
0.000932593
0.000609523
0.000402499
0.000360171
0.00371742
0.00341897
0.00267575
0.00215677
0.0016761
0.00126297
0.00092807
0.000618065
0.000392823
0.000355662
0.00365451
0.00336093
0.00265661
0.00214582
0.00167291
0.00126281
0.000924998
0.000627924
0.00038586
0.00035391
0.0037059
0.00331769
0.00265607
0.00214133
0.00167071
0.00126192
0.00092145
0.000636517
0.000379741
0.000352055
0.00372122
0.00329252
0.00266179
0.00214074
0.00166999
0.00126142
0.000918552
0.000644261
0.000374923
0.000350855
0.0037283
0.00327963
0.00266944
0.00214191
0.00167007
0.00126118
0.000916266
0.000650613
0.000371269
0.000350257
0.00372959
0.00327587
0.0026767
0.00214362
0.00167056
0.00126112
0.000914595
0.000655219
0.00036875
0.000350272
0.00372938
0.00328015
0.00268198
0.00214531
0.00167112
0.00126118
0.000913651
0.000657701
0.000367314
0.000350912
0.00373164
0.00329216
0.00268406
0.00214635
0.00167126
0.00126095
0.000913444
0.00065765
0.000366711
0.000351384
0.00374149
0.00331463
0.00268432
0.00214735
0.00167169
0.00126111
0.000914042
0.000655082
0.000366779
0.000354322
0.00397411
0.00327742
0.00269638
0.00215468
0.00167683
0.00126248
0.000960231
0.000550396
0.000477477
0.000385663
0.0039574
0.00326913
0.00269768
0.00215532
0.0016778
0.00126375
0.000960965
0.000552497