/*--------------------------------*- C++ -*----------------------------------*\
  =========                 |
  \\      /  F ield         | OpenFOAM: The Open Source CFD Toolbox
   \\    /   O peration     | Website:  https://openfoam.org
    \\  /    A nd           | Version:  10
     \\/     M anipulation  |
\*---------------------------------------------------------------------------*/
FoamFile
{
    format      ascii;
    class       volScalarField;
    location    "6.4416e-05";
    object      p;
}
// * * * * * * * * * * * * * * * * * * * * * * * * * * * * * * * * * * * * * //

dimensions      [0 2 -2 0 0 0 0];

internalField   nonuniform List<scalar> 
7600
(
0.000642102
1670.7
834.834
919.237
1012.63
1099.84
1167.19
1209.51
1229.8
1119.41
255.061
1784.46
1016.84
1090.57
1171.49
1245.9
1300.91
1330.92
1338.58
1215.5
527.355
1904.92
1212.43
1276.6
1346.71
1410.88
1458.17
1484.9
1496.47
1402.6
816.711
2033.1
1421.51
1476.79
1537.24
1593.08
1635.57
1662.98
1682.41
1617.86
1121.11
2168.23
1642.61
1689.48
1741.03
1789.48
1828.19
1856.79
1882.7
1841.57
1438.63
2309.5
1874.11
1912.83
1955.71
1996.85
2031.37
2059.63
2088.37
2064.19
1767.36
2455.65
2114.08
2144.72
2178.81
2212.16
2241.32
2266.89
2294.4
2281.6
2104.89
2604.64
2360.02
2382.65
2407.78
2432.7
2455.13
2475.65
2498.32
2492.54
2448.17
2754.9
2609.53
2624.18
2640.27
2656.19
2670.73
2684.3
2699.4
2697.52
2794.45
2905.6
2860.98
2867.72
2874.6
2881.15
2887
2892.43
2898.28
2898.41
-1291.88
1164.78
-35.3389
129.073
324.281
529.47
727.754
916.194
1095.68
1271.1
-1271.92
1167.73
-23.0795
140.15
333.533
536.344
731.869
917.238
1093.18
1266.67
-1224.88
1182.82
6.19197
165.763
354.488
551.88
741.459
920.435
1089.16
1258.83
-1152.82
1207.81
51.4086
205.385
387.047
576.305
757.037
926.579
1084.76
1249.11
-1056.03
1242.85
112.823
259.461
431.861
610.466
779.628
936.918
1081.55
1239.56
-935.06
1288.01
190.619
328.517
489.71
655.375
810.48
952.896
1081.22
1232.44
-790.57
1343.37
285.088
413.109
561.477
712.307
851.079
976.03
1085.25
1229.65
-623.45
1409.16
396.411
513.751
648.322
782.86
903.307
1008.05
1094.53
1231.3
-434.754
1485.49
524.856
631.187
751.528
869.202
969.945
1051.47
1109.61
1232.69
-226.685
1570.58
669.711
765.448
872.155
973.605
1055.05
1111.55
1132.05
1208.73
1641.38
1839.95
2001.49
2112.13
2188.21
2239.95
2274.52
2296.96
2310.87
2319.07
2321.81
2320.2
2316.34
2311.21
2305.42
2299.35
2293.27
2287.38
2281.8
2276.57
2271.72
2267.24
2263.14
2259.43
2256.09
2253.09
2250.41
2248.03
2245.91
2244.04
2242.39
2240.94
2239.66
2238.54
2237.55
2236.7
2235.95
2235.3
2234.74
2234.25
2233.83
2233.47
2233.15
2232.89
2232.66
2232.46
2232.3
2232.15
2232.03
2231.93
2231.84
2231.77
2231.71
2231.66
2231.62
2231.58
2231.56
2231.54
2231.52
2231.51
2231.5
2231.49
2231.49
2231.48
2231.48
2231.48
2231.48
2231.49
2231.49
2231.49
2231.49
2231.5
2231.5
2231.5
2231.51
2231.51
2231.51
2231.53
2231.37
2231.53
1621.41
1818.12
1985.65
2100.17
2179.02
2232.72
2268.7
2292.18
2306.89
2315.66
2319.2
2318.29
2314.84
2310.02
2304.45
2298.56
2292.62
2286.85
2281.36
2276.21
2271.42
2266.99
2262.94
2259.27
2255.95
2252.98
2250.32
2247.96
2245.86
2244
2242.35
2240.91
2239.64
2238.52
2237.54
2236.69
2235.95
2235.3
2234.74
2234.25
2233.83
2233.47
2233.16
2232.89
2232.66
2232.47
2232.3
2232.16
2232.04
2231.93
2231.85
2231.77
2231.71
2231.66
2231.62
2231.59
2231.56
2231.54
2231.52
2231.51
2231.5
2231.49
2231.49
2231.49
2231.49
2231.49
2231.49
2231.49
2231.49
2231.49
2231.5
2231.5
2231.5
2231.5
2231.51
2231.51
2231.51
2231.53
2231.37
2231.53
1582.82
1775.46
1954.18
2076.27
2160.6
2218.22
2257.03
2282.6
2298.94
2308.78
2313.81
2314.34
2311.79
2307.59
2302.5
2296.98
2291.32
2285.78
2280.48
2275.49
2270.83
2266.5
2262.54
2258.93
2255.68
2252.76
2250.14
2247.81
2245.74
2243.91
2242.28
2240.85
2239.6
2238.49
2237.52
2236.68
2235.94
2235.3
2234.74
2234.26
2233.84
2233.48
2233.17
2232.9
2232.68
2232.48
2232.31
2232.17
2232.05
2231.95
2231.86
2231.79
2231.72
2231.67
2231.63
2231.6
2231.57
2231.55
2231.53
2231.52
2231.51
2231.5
2231.49
2231.49
2231.49
2231.49
2231.49
2231.49
2231.49
2231.49
2231.5
2231.5
2231.5
2231.5
2231.51
2231.51
2231.51
2231.53
2231.36
2231.53
1528.21
1714.16
1907.65
2040.54
2132.93
2196.41
2239.49
2268.21
2286.89
2298.42
2305.46
2308.13
2307.05
2303.86
2299.52
2294.56
2289.33
2284.15
2279.15
2274.4
2269.93
2265.76
2261.93
2258.43
2255.27
2252.42
2249.87
2247.59
2245.57
2243.77
2242.18
2240.77
2239.54
2238.45
2237.5
2236.66
2235.93
2235.3
2234.75
2234.27
2233.85
2233.5
2233.19
2232.92
2232.69
2232.5
2232.33
2232.19
2232.07
2231.97
2231.88
2231.8
2231.74
2231.69
2231.65
2231.61
2231.58
2231.56
2231.54
2231.53
2231.52
2231.51
2231.5
2231.5
2231.5
2231.5
2231.49
2231.5
2231.5
2231.5
2231.5
2231.5
2231.5
2231.5
2231.51
2231.51
2231.51
2231.53
2231.36
2231.53
1461.16
1637.58
1847.09
1993.31
2096.06
2167.26
2216.06
2249.05
2270.93
2284.99
2294.06
2299.19
2300.41
2298.68
2295.41
2291.25
2286.63
2281.93
2277.33
2272.92
2268.72
2264.76
2261.1
2257.76
2254.72
2251.97
2249.51
2247.3
2245.33
2243.58
2242.04
2240.66
2239.46
2238.39
2237.46
2236.64
2235.92
2235.3
2234.75
2234.28
2233.87
2233.52
2233.21
2232.94
2232.72
2232.52
2232.36
2232.21
2232.09
2231.99
2231.9
2231.83
2231.77
2231.71
2231.67
2231.63
2231.6
2231.58
2231.56
2231.54
2231.53
2231.52
2231.51
2231.51
2231.5
2231.5
2231.5
2231.5
2231.5
2231.5
2231.5
2231.5
2231.5
2231.51
2231.51
2231.51
2231.51
2231.53
2231.36
2231.53
1385.93
1550.27
1774.17
1935.2
2050.18
2130.78
2186.7
2225.09
2251.04
2268.14
2279.43
2287.19
2291.26
2291.87
2290.04
2286.95
2283.13
2279.09
2275.01
2271.02
2267.17
2263.49
2260.06
2256.9
2254.01
2251.4
2249.04
2246.93
2245.04
2243.35
2241.85
2240.53
2239.35
2238.32
2237.41
2236.61
2235.91
2235.3
2234.76
2234.3
2233.89
2233.54
2233.24
2232.97
2232.75
2232.55
2232.39
2232.24
2232.12
2232.02
2231.93
2231.86
2231.79
2231.74
2231.7
2231.66
2231.63
2231.6
2231.58
2231.56
2231.55
2231.54
2231.53
2231.52
2231.52
2231.51
2231.51
2231.51
2231.51
2231.51
2231.51
2231.51
2231.51
2231.51
2231.51
2231.51
2231.51
2231.53
2231.36
2231.53
1306.88
1457.93
1691.46
1867.38
1995.75
2087.11
2151.43
2196.32
2227.3
2248.28
2262.37
2272.41
2279.05
2282.53
2283.15
2281.53
2278.74
2275.53
2272.12
2268.67
2265.27
2261.92
2258.77
2255.85
2253.15
2250.7
2248.48
2246.48
2244.68
2243.07
2241.64
2240.36
2239.23
2238.23
2237.35
2236.57
2235.89
2235.29
2234.77
2234.31
2233.91
2233.57
2233.27
2233.01
2232.78
2232.59
2232.42
2232.28
2232.16
2232.06
2231.97
2231.89
2231.83
2231.77
2231.73
2231.69
2231.65
2231.62
2231.6
2231.58
2231.57
2231.55
2231.54
2231.53
2231.53
2231.52
2231.52
2231.51
2231.51
2231.51
2231.51
2231.51
2231.51
2231.51
2231.51
2231.51
2231.51
2231.53
2231.36
2231.53
1227.73
1366.94
1602.36
1791.46
1933.38
2036.4
2110.18
2162.61
2199.55
2225.25
2242.92
2255.31
2264.24
2270.34
2273.61
2274.44
2273.27
2271.16
2268.58
2265.8
2262.96
2260.03
2257.23
2254.58
2252.13
2249.87
2247.81
2245.94
2244.25
2242.73
2241.37
2240.16
2239.08
2238.13
2237.28
2236.53
2235.87
2235.29
2234.78
2234.33
2233.94
2233.6
2233.3
2233.05
2232.82
2232.63
2232.46
2232.32
2232.2
2232.1
2232.01
2231.93
2231.87
2231.81
2231.76
2231.72
2231.68
2231.65
2231.63
2231.61
2231.59
2231.57
2231.56
2231.55
2231.54
2231.54
2231.53
2231.52
2231.52
2231.52
2231.51
2231.51
2231.51
2231.51
2231.51
2231.51
2231.51
2231.53
2231.36
2231.53
1155.72
1290.19
1517.73
1715.49
1869.01
1983.13
2066.46
2126.78
2170.15
2201.05
2222.93
2238.51
2249.61
2257.41
2262.66
2265.3
2266.29
2265.88
2264.5
2262.58
2260.42
2257.94
2255.5
2253.16
2250.96
2248.92
2247.05
2245.33
2243.77
2242.35
2241.08
2239.94
2238.92
2238.01
2237.2
2236.48
2235.85
2235.29
2234.79
2234.36
2233.98
2233.64
2233.35
2233.09
2232.87
2232.68
2232.51
2232.37
2232.25
2232.15
2232.06
2231.98
2231.91
2231.85
2231.8
2231.76
2231.72
2231.69
2231.66
2231.63
2231.61
2231.6
2231.58
2231.57
2231.56
2231.55
2231.54
2231.53
2231.53
2231.52
2231.52
2231.52
2231.52
2231.51
2231.51
2231.51
2231.51
2231.53
2231.36
2231.53
1048.29
1181.27
1389.71
1593.01
1760.63
1890.76
1989.12
2062.52
2116.88
2156.86
2186.17
2207.72
2223.61
2235.08
2243.16
2249.1
2252.82
2254.65
2255.2
2254.91
2254.11
2253.27
2252.01
2250.49
2248.9
2247.31
2245.77
2244.33
2242.98
2241.73
2240.6
2239.57
2238.63
2237.79
2237.04
2236.37
2235.78
2235.24
2234.77
2234.36
2233.99
2233.66
2233.38
2233.13
2232.91
2232.72
2232.56
2232.42
2232.3
2232.19
2232.11
2232.03
2231.96
2231.9
2231.84
2231.8
2231.75
2231.72
2231.69
2231.66
2231.64
2231.62
2231.6
2231.59
2231.58
2231.56
2231.55
2231.55
2231.54
2231.53
2231.53
2231.52
2231.52
2231.52
2231.52
2231.51
2231.51
2231.53
2231.36
2231.53
880.835
1220.67
1360.63
1524.12
1675.81
1804.65
1908.91
1991.09
2054.89
2103.93
2141.42
2170.06
2191.93
2208.54
2221.03
2230.2
2236.75
2241.14
2243.91
2245.49
2246.23
2246.39
2246.08
2245.48
2244.69
2243.79
2242.84
2241.89
2240.95
2240.05
2239.21
2238.42
2237.68
2237.01
2236.4
2235.85
2235.35
2234.9
2234.49
2234.13
2233.81
2233.52
2233.27
2233.04
2232.84
2232.67
2232.52
2232.39
2232.28
2232.18
2232.1
2232.02
2231.96
2231.9
2231.85
2231.81
2231.77
2231.73
2231.7
2231.67
2231.65
2231.63
2231.61
2231.6
2231.59
2231.57
2231.56
2231.55
2231.54
2231.54
2231.53
2231.53
2231.52
2231.52
2231.52
2231.52
2231.51
2231.53
2231.36
2231.53
1216.29
1483.93
1589.81
1700.48
1803.72
1894.98
1972.04
2035.08
2085.52
2125.26
2156.24
2180.22
2198.68
2212.78
2223.4
2231.23
2236.84
2240.65
2243.08
2244.47
2245.12
2245.23
2244.95
2244.39
2243.66
2242.84
2241.96
2241.08
2240.22
2239.39
2238.61
2237.88
2237.2
2236.58
2236.02
2235.5
2235.04
2234.63
2234.25
2233.92
2233.62
2233.36
2233.13
2232.92
2232.74
2232.58
2232.44
2232.32
2232.21
2232.12
2232.04
2231.98
2231.92
2231.86
2231.82
2231.78
2231.74
2231.71
2231.68
2231.66
2231.64
2231.62
2231.6
2231.59
2231.58
2231.57
2231.56
2231.55
2231.54
2231.54
2231.53
2231.53
2231.52
2231.52
2231.52
2231.52
2231.52
2231.53
2231.36
2231.53
1557.4
1669.83
1720.72
1792.12
1865.65
1934.61
1995.68
2047.68
2090.76
2125.75
2153.77
2175.97
2193.4
2206.95
2217.37
2225.24
2231.06
2235.21
2238.07
2239.92
2241.02
2241.56
2241.68
2241.5
2241.12
2240.61
2240.01
2239.38
2238.73
2238.09
2237.48
2236.9
2236.35
2235.84
2235.38
2234.95
2234.56
2234.21
2233.9
2233.61
2233.36
2233.14
2232.93
2232.76
2232.6
2232.46
2232.34
2232.23
2232.14
2232.06
2231.99
2231.93
2231.88
2231.83
2231.79
2231.75
2231.72
2231.69
2231.67
2231.65
2231.63
2231.61
2231.6
2231.58
2231.57
2231.56
2231.56
2231.55
2231.54
2231.54
2231.53
2231.53
2231.52
2231.52
2231.52
2231.52
2231.52
2231.53
2231.36
2231.53
1851.88
1855.08
1854.18
1887.45
1932.79
1980.68
2026.15
2066.83
2101.89
2131.3
2155.51
2175.15
2190.9
2203.4
2213.19
2220.75
2226.48
2230.73
2233.8
2235.93
2237.34
2238.2
2238.64
2238.77
2238.68
2238.44
2238.09
2237.69
2237.24
2236.79
2236.33
2235.89
2235.47
2235.08
2234.71
2234.37
2234.06
2233.78
2233.52
2233.29
2233.08
2232.9
2232.73
2232.58
2232.45
2232.33
2232.23
2232.14
2232.06
2231.99
2231.93
2231.88
2231.84
2231.8
2231.76
2231.73
2231.7
2231.68
2231.65
2231.63
2231.62
2231.6
2231.59
2231.58
2231.57
2231.56
2231.55
2231.55
2231.54
2231.54
2231.53
2231.53
2231.53
2231.52
2231.52
2231.52
2231.52
2231.53
2231.37
2231.53
2076.9
2015.75
1976.4
1977.83
1998.44
2027.36
2058.45
2088.38
2115.52
2139.2
2159.33
2176.11
2189.89
2201.06
2210
2217.06
2222.55
2226.75
2229.9
2232.21
2233.85
2234.96
2235.68
2236.08
2236.26
2236.26
2236.15
2235.96
2235.71
2235.44
2235.15
2234.85
2234.56
2234.28
2234.01
2233.76
2233.53
2233.32
2233.12
2232.95
2232.78
2232.64
2232.51
2232.39
2232.29
2232.19
2232.11
2232.04
2231.98
2231.92
2231.87
2231.83
2231.79
2231.76
2231.73
2231.7
2231.68
2231.66
2231.64
2231.62
2231.61
2231.59
2231.58
2231.57
2231.57
2231.56
2231.55
2231.55
2231.54
2231.54
2231.53
2231.53
2231.53
2231.52
2231.52
2231.52
2231.52
2231.53
2231.37
2231.53
2243
2148.68
2084.26
2061.29
2061.27
2073.57
2091.6
2111.47
2130.97
2148.94
2164.86
2178.58
2190.18
2199.82
2207.73
2214.13
2219.24
2223.27
2226.4
2228.79
2230.58
2231.89
2232.83
2233.47
2233.88
2234.11
2234.22
2234.23
2234.17
2234.07
2233.94
2233.78
2233.62
2233.45
2233.29
2233.13
2232.98
2232.84
2232.71
2232.58
2232.47
2232.37
2232.27
2232.19
2232.11
2232.05
2231.99
2231.93
2231.88
2231.84
2231.8
2231.77
2231.74
2231.71
2231.69
2231.67
2231.65
2231.63
2231.62
2231.61
2231.59
2231.58
2231.58
2231.57
2231.56
2231.55
2231.55
2231.54
2231.54
2231.53
2231.53
2231.53
2231.53
2231.52
2231.52
2231.52
2231.52
2231.54
2231.37
2231.53
2364.94
2256.05
2176.96
2136.46
2120.02
2118.2
2124.65
2135.29
2147.57
2159.98
2171.69
2182.27
2191.56
2199.54
2206.28
2211.9
2216.51
2220.26
2223.28
2225.67
2227.55
2229.01
2230.12
2230.95
2231.57
2232.01
2232.32
2232.52
2232.64
2232.7
2232.72
2232.71
2232.67
2232.62
2232.56
2232.49
2232.42
2232.35
2232.28
2232.21
2232.15
2232.09
2232.03
2231.98
2231.93
2231.89
2231.85
2231.82
2231.78
2231.76
2231.73
2231.71
2231.69
2231.67
2231.65
2231.64
2231.62
2231.61
2231.6
2231.59
2231.58
2231.57
2231.57
2231.56
2231.55
2231.55
2231.54
2231.54
2231.54
2231.53
2231.53
2231.53
2231.52
2231.52
2231.52
2231.52
2231.52
2231.54
2231.37
2231.53
2455.26
2341.98
2255.35
2202.9
2173.84
2160.39
2156.81
2159.14
2164.72
2171.85
2179.46
2186.9
2193.82
2200.06
2205.54
2210.27
2214.31
2217.7
2220.53
2222.86
2224.77
2226.31
2227.56
2228.56
2229.35
2229.98
2230.47
2230.84
2231.13
2231.35
2231.52
2231.64
2231.72
2231.78
2231.82
2231.84
2231.85
2231.85
2231.84
2231.83
2231.82
2231.8
2231.79
2231.77
2231.75
2231.73
2231.72
2231.7
2231.68
2231.67
2231.66
2231.64
2231.63
2231.62
2231.61
2231.6
2231.6
2231.59
2231.58
2231.57
2231.57
2231.56
2231.56
2231.55
2231.55
2231.54
2231.54
2231.54
2231.53
2231.53
2231.53
2231.53
2231.52
2231.52
2231.52
2231.52
2231.52
2231.54
2231.37
2231.53
2523.21
2410.7
2321.03
2260.8
2222.35
2199.53
2187.45
2182.45
2181.95
2184.14
2187.82
2192.19
2196.76
2201.22
2205.4
2209.19
2212.58
2215.55
2218.13
2220.35
2222.23
2223.83
2225.18
2226.31
2227.25
2228.04
2228.69
2229.23
2229.68
2230.04
2230.34
2230.59
2230.79
2230.96
2231.09
2231.2
2231.29
2231.36
2231.41
2231.46
2231.49
2231.52
2231.54
2231.55
2231.57
2231.57
2231.58
2231.58
2231.58
2231.58
2231.58
2231.58
2231.58
2231.58
2231.57
2231.57
2231.57
2231.56
2231.56
2231.56
2231.55
2231.55
2231.55
2231.54
2231.54
2231.54
2231.54
2231.53
2231.53
2231.53
2231.53
2231.52
2231.52
2231.52
2231.52
2231.52
2231.52
2231.54
2231.37
2231.53
2575.21
2465.84
2375.79
2310.75
2265.47
2235.26
2216.09
2204.75
2198.81
2196.47
2196.47
2197.91
2200.19
2202.89
2205.74
2208.57
2211.27
2213.78
2216.06
2218.12
2219.95
2221.57
2222.98
2224.21
2225.28
2226.21
2227.01
2227.69
2228.28
2228.78
2229.21
2229.58
2229.89
2230.16
2230.39
2230.58
2230.74
2230.88
2230.99
2231.09
2231.17
2231.24
2231.3
2231.34
2231.38
2231.42
2231.44
2231.46
2231.48
2231.5
2231.51
2231.52
2231.52
2231.53
2231.53
2231.54
2231.54
2231.54
2231.54
2231.54
2231.54
2231.54
2231.54
2231.53
2231.53
2231.53
2231.53
2231.53
2231.53
2231.53
2231.52
2231.52
2231.52
2231.52
2231.52
2231.52
2231.52
2231.54
2231.37
2231.53
2615.67
2510.3
2421.32
2353.49
2303.34
2267.4
2242.42
2225.67
2214.94
2208.52
2205.13
2203.83
2203.92
2204.91
2206.46
2208.32
2210.32
2212.34
2214.31
2216.18
2217.92
2219.52
2220.97
2222.29
2223.46
2224.5
2225.43
2226.25
2226.96
2227.59
2228.14
2228.62
2229.04
2229.4
2229.71
2229.98
2230.21
2230.42
2230.59
2230.74
2230.86
2230.97
2231.06
2231.14
2231.21
2231.26
2231.31
2231.35
2231.38
2231.41
2231.44
2231.45
2231.47
2231.48
2231.49
2231.5
2231.51
2231.51
2231.52
2231.52
2231.52
2231.53
2231.53
2231.53
2231.53
2231.53
2231.53
2231.53
2231.52
2231.52
2231.52
2231.52
2231.52
2231.52
2231.52
2231.52
2231.52
2231.54
2231.37
2231.53
2647.55
2546.3
2459.07
2389.8
2336.24
2295.9
2266.23
2244.93
2230.06
2220.02
2213.56
2209.73
2207.78
2207.16
2207.46
2208.37
2209.67
2211.19
2212.83
2214.49
2216.13
2217.69
2219.16
2220.53
2221.79
2222.94
2223.97
2224.91
2225.74
2226.48
2227.14
2227.72
2228.23
2228.68
2229.07
2229.42
2229.72
2229.98
2230.2
2230.4
2230.57
2230.71
2230.84
2230.95
2231.04
2231.12
2231.19
2231.24
2231.29
2231.33
2231.37
2231.4
2231.42
2231.44
2231.46
2231.47
2231.48
2231.49
2231.5
2231.51
2231.51
2231.51
2231.52
2231.52
2231.52
2231.52
2231.52
2231.52
2231.52
2231.52
2231.52
2231.52
2231.52
2231.52
2231.52
2231.52
2231.52
2231.54
2231.37
2231.53
2672.88
2575.49
2490.27
2420.39
2364.5
2320.82
2287.39
2262.33
2243.92
2230.72
2221.55
2215.43
2211.61
2209.49
2208.62
2208.63
2209.26
2210.3
2211.61
2213.06
2214.57
2216.08
2217.56
2218.97
2220.29
2221.52
2222.65
2223.69
2224.62
2225.46
2226.22
2226.89
2227.49
2228.02
2228.49
2228.9
2229.26
2229.57
2229.85
2230.09
2230.3
2230.48
2230.63
2230.77
2230.88
2230.98
2231.07
2231.14
2231.2
2231.26
2231.3
2231.34
2231.37
2231.4
2231.42
2231.44
2231.46
2231.47
2231.48
2231.49
2231.5
2231.5
2231.51
2231.51
2231.51
2231.52
2231.52
2231.52
2231.52
2231.52
2231.52
2231.52
2231.52
2231.52
2231.52
2231.52
2231.52
2231.54
2231.37
2231.53
2693.09
2599.11
2515.88
2445.9
2388.43
2342.25
2305.86
2277.71
2256.34
2240.45
2228.9
2220.77
2215.28
2211.8
2209.86
2209.04
2209.04
2209.63
2210.61
2211.85
2213.23
2214.69
2216.15
2217.59
2218.96
2220.26
2221.48
2222.6
2223.62
2224.55
2225.39
2226.15
2226.82
2227.42
2227.95
2228.43
2228.84
2229.21
2229.52
2229.8
2230.05
2230.26
2230.44
2230.6
2230.74
2230.86
2230.96
2231.05
2231.12
2231.19
2231.24
2231.29
2231.33
2231.36
2231.39
2231.41
2231.43
2231.45
2231.46
2231.48
2231.48
2231.49
2231.5
2231.5
2231.51
2231.51
2231.51
2231.51
2231.52
2231.52
2231.52
2231.52
2231.52
2231.52
2231.52
2231.52
2231.52
2231.53
2231.37
2231.53
2709.14
2618.08
2536.66
2466.86
2408.35
2360.32
2321.62
2290.99
2267.19
2249.03
2235.47
2225.6
2218.65
2213.99
2211.09
2209.52
2208.96
2209.13
2209.81
2210.85
2212.11
2213.5
2214.95
2216.4
2217.82
2219.17
2220.45
2221.65
2222.75
2223.75
2224.67
2225.49
2226.23
2226.9
2227.49
2228.01
2228.47
2228.88
2229.24
2229.55
2229.83
2230.07
2230.27
2230.46
2230.61
2230.75
2230.86
2230.97
2231.05
2231.13
2231.19
2231.24
2231.29
2231.33
2231.36
2231.39
2231.41
2231.43
2231.45
2231.46
2231.47
2231.48
2231.49
2231.5
2231.5
2231.51
2231.51
2231.51
2231.51
2231.51
2231.52
2231.52
2231.52
2231.52
2231.52
2231.52
2231.52
2231.53
2231.37
2231.53
2721.74
2633.07
2553.21
2483.72
2424.54
2375.15
2334.68
2302.11
2276.35
2256.35
2241.12
2229.8
2221.62
2215.95
2212.23
2210.03
2208.97
2208.77
2209.19
2210.05
2211.2
2212.53
2213.95
2215.41
2216.86
2218.26
2219.59
2220.84
2222
2223.07
2224.05
2224.93
2225.73
2226.45
2227.08
2227.65
2228.16
2228.6
2228.99
2229.34
2229.64
2229.9
2230.13
2230.33
2230.5
2230.65
2230.78
2230.89
2230.99
2231.07
2231.14
2231.2
2231.26
2231.3
2231.34
2231.37
2231.39
2231.42
2231.44
2231.45
2231.46
2231.48
2231.48
2231.49
2231.5
2231.5
2231.51
2231.51
2231.51
2231.51
2231.51
2231.51
2231.52
2231.52
2231.52
2231.52
2231.52
2231.53
2231.37
2231.53
2731.38
2644.58
2565.99
2496.83
2437.22
2386.86
2345.08
2311.03
2283.76
2262.31
2245.76
2233.28
2224.11
2217.61
2213.22
2210.49
2209.03
2208.52
2208.72
2209.43
2210.48
2211.75
2213.16
2214.62
2216.08
2217.52
2218.89
2220.19
2221.4
2222.52
2223.55
2224.48
2225.32
2226.08
2226.76
2227.36
2227.9
2228.37
2228.79
2229.16
2229.48
2229.77
2230.01
2230.23
2230.41
2230.58
2230.72
2230.84
2230.94
2231.03
2231.11
2231.17
2231.23
2231.28
2231.32
2231.35
2231.38
2231.4
2231.42
2231.44
2231.46
2231.47
2231.48
2231.49
2231.49
2231.5
2231.5
2231.51
2231.51
2231.51
2231.51
2231.51
2231.51
2231.52
2231.52
2231.52
2231.52
2231.53
2231.37
2231.53
2738.41
2652.97
2575.32
2506.44
2446.58
2395.55
2352.84
2317.72
2289.35
2266.83
2249.3
2235.95
2226.04
2218.91
2214.02
2210.88
2209.1
2208.36
2208.39
2208.97
2209.95
2211.18
2212.56
2214.02
2215.5
2216.96
2218.37
2219.7
2220.95
2222.1
2223.17
2224.13
2225.01
2225.8
2226.51
2227.14
2227.7
2228.2
2228.64
2229.03
2229.37
2229.66
2229.92
2230.15
2230.35
2230.52
2230.66
2230.79
2230.9
2231
2231.08
2231.15
2231.21
2231.26
2231.3
2231.34
2231.37
2231.39
2231.42
2231.44
2231.45
2231.46
2231.47
2231.48
2231.49
2231.5
2231.5
2231.5
2231.51
2231.51
2231.51
2231.51
2231.51
2231.51
2231.52
2231.52
2231.52
2231.53
2231.37
2231.53
2743.07
2658.48
2581.44
2512.76
2452.74
2401.3
2358
2322.19
2293.1
2269.88
2251.7
2237.76
2227.35
2219.81
2214.57
2211.16
2209.17
2208.26
2208.17
2208.68
2209.59
2210.79
2212.16
2213.62
2215.11
2216.59
2218.01
2219.37
2220.64
2221.82
2222.91
2223.9
2224.8
2225.61
2226.34
2226.99
2227.57
2228.08
2228.54
2228.94
2229.29
2229.59
2229.86
2230.1
2230.3
2230.48
2230.63
2230.76
2230.88
2230.97
2231.06
2231.13
2231.19
2231.25
2231.29
2231.33
2231.36
2231.39
2231.41
2231.43
2231.45
2231.46
2231.47
2231.48
2231.49
2231.49
2231.5
2231.5
2231.51
2231.51
2231.51
2231.51
2231.51
2231.51
2231.52
2231.52
2231.51
2231.53
2231.37
2231.53
2745.51
2661.23
2584.47
2515.89
2455.81
2404.16
2360.57
2324.43
2294.98
2271.41
2252.9
2238.68
2228.02
2220.26
2214.85
2211.3
2209.2
2208.22
2208.07
2208.53
2209.42
2210.6
2211.97
2213.42
2214.92
2216.4
2217.84
2219.2
2220.49
2221.68
2222.78
2223.79
2224.7
2225.52
2226.26
2226.92
2227.5
2228.03
2228.49
2228.89
2229.25
2229.56
2229.83
2230.07
2230.28
2230.46
2230.61
2230.75
2230.86
2230.96
2231.05
2231.12
2231.19
2231.24
2231.28
2231.32
2231.36
2231.38
2231.41
2231.43
2231.44
2231.46
2231.47
2231.48
2231.49
2231.49
2231.5
2231.5
2231.51
2231.51
2231.51
2231.51
2231.51
2231.51
2231.52
2231.52
2231.51
2231.53
2231.37
2231.53
2933.5
2798.57
2655.01
2497.87
2323.52
2129.84
1916.6
1685.42
1448.59
1122.21
2978.61
2931.48
2873.53
2797.84
2698.04
2568.48
2404.5
2202.54
1967.8
1613.93
2989.38
2963.17
2928.87
2881.09
2814.6
2724.29
2605.11
2451.97
2264.63
1977.18
2993.45
2974.65
2949.86
2915.01
2865.95
2798.47
2708.23
2590.66
2444.34
2223.03
2994.55
2977.03
2955.11
2925.71
2885.7
2831.83
2760.73
2668.81
2554.63
2385.92
2994.7
2976.36
2954.75
2927.58
2892.52
2847.14
2788.91
2715.18
2624.8
2495.17
2994.67
2975.04
2952.97
2926.73
2894.61
2854.83
2805.52
2744.77
2671.75
2570.53
2994.77
2973.98
2951.35
2925.6
2895.44
2859.58
2816.67
2765.33
2705
2624.4
2995.06
2973.42
2950.4
2925.03
2896.35
2863.41
2825.24
2780.87
2729.9
2664.35
2995.54
2973.37
2950.16
2925.18
2897.71
2867.06
2832.52
2793.4
2749.45
2694.99
2996.13
2973.72
2950.52
2925.97
2899.55
2870.74
2839.03
2803.95
2765.32
2719.13
2996.81
2974.35
2951.3
2927.22
2901.72
2874.43
2844.98
2813.03
2778.48
2738.5
2997.51
2975.15
2952.34
2928.74
2904.07
2878.04
2850.41
2820.92
2789.52
2754.24
2998.2
2976.02
2953.51
2930.38
2906.44
2881.47
2855.3
2827.75
2798.78
2767.07
2998.85
2976.91
2954.7
2932.02
2908.71
2884.63
2859.63
2833.6
2806.51
2777.48
2999.43
2977.75
2955.85
2933.58
2910.82
2887.45
2863.38
2838.52
2812.85
2785.82
2999.94
2978.51
2956.9
2934.99
2912.69
2889.89
2866.54
2842.55
2817.92
2792.33
3000.35
2979.17
2957.84
2936.25
2914.31
2891.95
2869.11
2845.74
2821.83
2797.2
3000.67
2979.73
2958.65
2937.32
2915.66
2893.61
2871.11
2848.12
2824.63
2800.55
3000.97
2980.42
2959.7
2938.7
2917.32
2895.49
2873.13
2850.22
2826.73
2802.68
4875.69
4763.66
4783.05
4824.95
4891.93
4978.62
5071.07
5154.32
4314.64
5974.89
4782.23
4656.76
4662.85
4691.79
4745.82
4819.17
4898.57
4970.41
4197.97
5715.36
4596.44
4500.01
4509.64
4534.87
4580.72
4643.35
4711.41
4773.03
4074.69
5438.85
4381.41
4314.46
4331.88
4357.56
4398.29
4452.18
4510.17
4562.3
3943.92
5145.64
4157.43
4114.14
4138.09
4164.81
4201.55
4247.75
4296.47
4339.68
3806.52
4837.76
3934.34
3908.22
3935.07
3961.38
3993.78
4032.46
4072.22
4106.85
3663.38
4517.22
3716.43
3701.86
3727.53
3751.11
3778.03
3808.76
3839.49
3865.63
3515.58
4186.07
3504.97
3497.52
3518.37
3536.84
3556.89
3578.95
3600.4
3617.99
3364.29
3846.25
3299.39
3295.84
3309.09
3320.49
3332.43
3345.15
3357.06
3365.9
3210.75
3499.66
3097.98
3096.43
3100.37
3103.5
3106.6
3109.64
3111.88
3112.18
3056.96
3150.27
4719.34
4895.63
5076.34
5266.21
5466.15
5673.27
5870.51
6039.21
4842.12
7297.4
4723.49
4897.86
5075.05
5261.87
5459.06
5663.79
5859.17
6026.58
4838.66
7276.71
4730.83
4901.39
5071.41
5251.85
5443.1
5642.37
5833.01
5996.54
4822.5
7228.14
4739.79
4905.09
5064.68
5235.71
5418.11
5609.18
5792.64
5950.24
4796.09
7154.02
4748.32
4907.44
5053.64
5212.49
5383.31
5563.64
5737.64
5887.44
4759.14
7054.59
4754.23
4906.83
5036.98
5181.01
5337.73
5505.03
5667.59
5807.95
4711.67
6930.46
4755.9
4901.96
5013.29
5139.89
5280.17
5432.45
5581.98
5711.69
4653.64
6782.42
4753.63
4892.26
4981.07
5087.37
5209.11
5344.84
5480.19
5598.51
4585.1
6611.41
4752.56
4877.51
4938.02
5020.93
5122.56
5240.86
5361.56
5468.21
4505.87
6418.57
4779.01
4857.08
4879.12
4936.31
5018.16
5119.68
5226.06
5321.39
4417.78
6206.11
3804.24
3803.5
3802.08
3800.01
3797.32
3794.11
3790.52
3786.68
3782.75
3779.07
3776.29
3775.29
3777.59
3786.04
3807.95
3854.17
3928.73
4034.24
4185.14
4386.08
3804.35
3803.62
3802.26
3800.26
3797.67
3794.6
3791.21
3787.62
3784
3780.72
3778.49
3778.24
3781.6
3791.74
3817.26
3867.41
3944.19
4052.9
4208.66
4404.42
3804.53
3803.86
3802.6
3800.75
3798.37
3795.57
3792.56
3789.48
3786.5
3784.03
3782.9
3784.18
3789.76
3803.41
3836.1
3892.93
3974.5
4089.42
4254.26
4439.71
3804.8
3804.19
3803.08
3801.47
3799.4
3797.01
3794.58
3792.26
3790.25
3789.01
3789.6
3793.26
3802.49
3823.01
3864.99
3929.88
4018.51
4142.27
4319.07
4489.32
3805.12
3804.61
3803.71
3802.41
3800.74
3798.91
3797.26
3795.97
3795.29
3795.71
3798.71
3805.76
3820.45
3852.92
3904.63
3977.32
4074.38
4209.14
4398.85
4549.7
3805.48
3805.1
3804.46
3803.54
3802.4
3801.24
3800.59
3800.64
3801.67
3804.26
3810.52
3822.35
3846.44
3891.3
3954.04
4032.72
4139.76
4287.01
4488.07
4616.82
3805.87
3805.64
3805.32
3804.88
3804.36
3804.01
3804.6
3806.33
3809.54
3814.93
3825.8
3845.61
3883.75
3937.37
4007.97
4093.67
4212.05
4372.08
4580.09
4686.88
3806.28
3806.25
3806.31
3806.44
3806.66
3807.26
3809.4
3813.31
3819.51
3829.07
3848.37
3880.88
3927.59
3988.96
4061.47
4157.54
4288.39
4459.99
4667.93
4757.11
3806.88
3807.08
3807.61
3808.47
3809.67
3811.5
3815.65
3822.61
3833.76
3852.49
3878.67
3918.15
3968.06
4030.9
4111.28
4217.97
4359.88
4539.22
4738.46
4821.64
3808.25
3808.9
3810.37
3812.92
3817.06
3823.5
3832.06
3844.04
3861.44
3886.66
3920.51
3964.98
4022.72
4096.45
4191.01
4313.54
4469.4
4654.47
4836.21
4923.98
3811.12
3812.26
3814.71
3818.78
3824.99
3833.87
3845.64
3861.66
3883.62
3913.36
3952.47
4003.03
4067.53
4148.17
4247.88
4368.94
4509.08
4657.19
4781.53
5101.71
3815.28
3816.36
3818.63
3822.35
3827.85
3835.55
3845.92
3859.88
3878.54
3903.14
3934.78
3974.67
4024.12
4084.22
4155.86
4239.04
4331.81
4430.36
4523.98
4762.96
3819.57
3820.69
3823.04
3826.8
3832.26
3839.77
3849.81
3863.04
3880.25
3902.26
3929.86
3963.76
4004.61
4052.7
4107.8
4168.56
4231.63
4290.5
4327.29
4416.08
3823.71
3824.8
3827.05
3830.62
3835.72
3842.66
3851.8
3863.62
3878.62
3897.34
3920.2
3947.51
3979.32
4015.25
4054.08
4093.27
4127.76
4148.33
4134.39
4123.26
3827.59
3828.59
3830.64
3833.86
3838.42
3844.53
3852.46
3862.5
3874.97
3890.13
3908.09
3928.81
3951.86
3976.29
4000.18
4020.06
4029.91
4019.65
3970.2
3902.98
3831.13
3832
3833.77
3836.52
3840.37
3845.46
3851.95
3859.99
3869.71
3881.16
3894.2
3908.47
3923.2
3937.01
3947.52
3950.83
3940.8
3908.02
3836.99
3742.55
3834.28
3834.98
3836.41
3838.6
3841.63
3845.56
3850.45
3856.35
3863.22
3870.92
3879.13
3887.26
3894.27
3898.52
3897.43
3887.11
3861.88
3813.84
3731.35
3626.14
3837.02
3837.54
3838.57
3840.14
3842.26
3844.94
3848.15
3851.84
3855.84
3859.88
3863.47
3865.86
3865.85
3861.7
3850.86
3829.7
3793.36
3735.59
3648.16
3540.81
3839.35
3839.65
3840.27
3841.17
3842.34
3843.72
3845.23
3846.71
3847.9
3848.43
3847.69
3844.83
3838.59
3827.23
3808.37
3778.83
3734.63
3671.08
3582.56
3477.2
3841.26
3841.36
3841.54
3841.76
3841.96
3842.05
3841.86
3841.19
3839.7
3836.93
3832.21
3824.63
3812.96
3795.53
3770.21
3734.33
3684.75
3618.05
3530.54
3428.92
3842.81
3842.69
3842.43
3841.97
3841.22
3840.04
3838.22
3835.51
3831.5
3825.69
3817.38
3805.64
3789.3
3766.84
3736.41
3695.82
3642.65
3574.5
3489.03
3391.64
3844.01
3843.68
3843
3841.88
3840.21
3837.82
3834.47
3829.85
3823.53
3814.98
3803.47
3788.13
3767.85
3741.28
3706.84
3662.8
3607.32
3538.77
3455.73
3362.47
3844.91
3844.39
3843.3
3841.56
3839.03
3835.52
3830.76
3824.4
3816
3805.01
3790.72
3772.3
3748.74
3718.84
3681.32
3634.77
3577.86
3509.51
3428.92
3339.42
3845.57
3844.86
3843.4
3841.1
3837.78
3833.25
3827.21
3819.3
3809.07
3795.96
3779.3
3758.29
3732.03
3699.49
3659.6
3611.26
3553.52
3485.67
3407.36
3321.15
3846.02
3845.15
3843.36
3840.55
3836.54
3831.1
3823.95
3814.7
3802.9
3787.99
3769.33
3746.2
3717.76
3683.14
3641.46
3591.86
3533.66
3466.45
3390.15
3306.69
3846.31
3845.3
3843.23
3839.98
3835.37
3829.18
3821.08
3810.7
3797.59
3781.2
3760.92
3736.07
3705.92
3669.7
3626.68
3576.2
3517.79
3451.21
3376.6
3295.4
3846.49
3845.37
3843.06
3839.45
3834.36
3827.54
3818.68
3807.4
3793.23
3775.67
3754.12
3727.95
3696.49
3659.07
3615.08
3564.01
3505.5
3439.5
3366.23
3286.79
3846.6
3845.38
3842.9
3839.02
3833.55
3826.26
3816.82
3804.86
3789.91
3771.47
3748.99
3721.85
3689.44
3651.18
3606.52
3555.04
3496.52
3430.97
3358.68
3280.51
3846.65
3845.37
3842.77
3838.7
3832.99
3825.38
3815.56
3803.14
3787.67
3768.66
3745.55
3717.78
3684.76
3645.95
3600.87
3549.15
3490.64
3425.38
3353.73
3276.35
3846.67
3845.37
3842.7
3838.54
3832.71
3824.94
3814.92
3802.27
3786.54
3767.24
3743.83
3715.75
3682.43
3643.35
3598.06
3546.23
3487.72
3422.61
3351.24
3274.14
4880.69
4555.68
4317.88
4085.94
3871.89
3677.52
3502.63
3345.02
3200.96
3065.62
4390.59
4035.58
3799.54
3597.06
3432.79
3303.15
3203.34
3127.61
3069.49
3022.17
4027.4
3739.03
3550.84
3397.43
3278.15
3187.87
3121.46
3073.7
3039.29
3012.94
3781.33
3559.53
3412.85
3295.27
3205.12
3137.79
3088.86
3054.06
3029.23
3010.33
3619.01
3450.12
3335.86
3244.06
3173.12
3119.43
3079.55
3050.21
3028.26
3010.67
3511.04
3381.37
3291.02
3217.43
3159.35
3114.11
3079.14
3052.01
3030.38
3012
3437.38
3336.15
3263.16
3202.52
3153.32
3113.61
3081.55
3055.33
3033.22
3013.54
3385.4
3304.74
3244.41
3193.12
3150.26
3114.43
3084.29
3058.53
3035.84
3014.99
3347.36
3281.69
3230.68
3186.31
3148.13
3115.18
3086.48
3061.07
3037.98
3016.28
3318.58
3263.96
3219.92
3180.74
3146.15
3115.44
3087.93
3062.88
3039.61
3017.38
3296.21
3249.81
3211.04
3175.86
3144.06
3115.17
3088.68
3064.06
3040.79
3018.31
3278.44
3238.22
3203.51
3171.43