/*--------------------------------*- C++ -*----------------------------------*\
  =========                 |
  \\      /  F ield         | OpenFOAM: The Open Source CFD Toolbox
   \\    /   O peration     | Website:  https://openfoam.org
    \\  /    A nd           | Version:  10
     \\/     M anipulation  |
\*---------------------------------------------------------------------------*/
FoamFile
{
    format      ascii;
    class       surfaceScalarField;
    location    "6.4416e-05";
    object      phi;
}
// * * * * * * * * * * * * * * * * * * * * * * * * * * * * * * * * * * * * * //

dimensions      [0 3 -1 0 0 0 0];

internalField   nonuniform List<scalar> 
14980
(
0.0365882
-0.513651
0.477062
0.0667042
-0.430902
0.400786
0.0944864
-0.396569
0.368787
0.120453
-0.370041
0.344074
0.14514
-0.351391
0.326704
0.168873
-0.337766
0.314033
0.191822
-0.32754
0.304591
0.214007
-0.319686
0.297501
0.234742
-0.31356
0.292825
-0.308178
0.284026
0.258893
0.0333005
-0.546951
0.0608384
-0.45844
0.086216
-0.421947
0.109902
-0.393727
0.132409
-0.373898
0.154049
-0.359405
0.175031
-0.348523
0.195505
-0.340161
0.215519
-0.333573
-0.328657
0.235998
0.0298558
-0.576807
0.0546141
-0.483198
0.0774081
-0.444741
0.0986703
-0.414989
0.118865
-0.394092
0.138284
-0.378825
0.157123
-0.367362
0.17552
-0.358558
0.193587
-0.351641
-0.346532
0.211462
0.0262626
-0.603069
0.0480709
-0.505006
0.0681282
-0.464798
0.0868297
-0.43369
0.104586
-0.411848
0.121656
-0.395895
0.13821
-0.383916
0.154367
-0.374715
0.170208
-0.367481
-0.362104
0.18578
0.0225356
-0.625605
0.0412464
-0.523717
0.0584366
-0.481988
0.0744549
-0.449709
0.0896579
-0.427051
0.104267
-0.410504
0.118425
-0.398074
0.132229
-0.388518
0.145739
-0.380992
-0.375379
0.159014
0.018697
-0.644302
0.0341841
-0.539204
0.0483924
-0.496197
0.0616236
-0.46294
0.0741765
-0.439604
0.0862318
-0.422559
0.0979078
-0.40975
0.109281
-0.399892
0.120402
-0.392112
-0.386303
0.131326
0.0147815
-0.659084
0.0269357
-0.551358
0.0380631
-0.507324
0.0484193
-0.473296
0.0582407
-0.449425
0.0676699
-0.431988
0.0767986
-0.418879
0.0856848
-0.408778
0.0943672
-0.400795
-0.394829
0.102894
0.0108355
-0.669919
0.0195469
-0.56007
0.0275163
-0.515293
0.0349268
-0.480707
0.0419558
-0.456454
0.0487049
-0.438737
0.055237
-0.425411
0.0615936
-0.415135
0.0678018
-0.407003
-0.400924
0.073896
0.00684971
-0.676769
0.0120202
-0.56524
0.0167791
-0.520052
0.0212016
-0.485129
0.025402
-0.460655
0.0294359
-0.442771
0.0333415
-0.429317
0.0371421
-0.418935
0.0408541
-0.410715
-0.404567
0.0444972
0.00281892
-0.679588
0.00446536
-0.566887
0.00593212
-0.521519
0.00733541
-0.486532
0.00868702
-0.462006
0.00998504
-0.444069
0.011246
-0.430578
0.0124747
-0.420164
0.0136767
-0.411917
0.0148582
-0.405748
0.0531502
-0.053149
-1.23894e-06
0.0976773
-0.0445261
-9.80263e-07
0.138475
-0.0407969
-8.61862e-07
0.176498
-0.038022
-6.07795e-07
0.212561
-0.0360617
-9.90562e-07
0.247181
-0.0346182
-1.81679e-06
0.280703
-0.0335205
-1.71358e-06
0.313368
-0.0326639
-9.3987e-07
0.345342
-0.0319737
-8.19007e-07
-0.0314887
0.376832
-8.81368e-07
0.0527956
-0.105945
0.0969939
-0.0887244
0.137562
-0.0813648
0.175372
-0.0758322
0.211234
-0.0719239
0.245661
-0.069045
0.278996
-0.0668553
0.311478
-0.0651456
0.343272
-0.0637679
-0.062801
0.374584
0.0521088
-0.158053
0.0957417
-0.132357
0.135827
-0.12145
0.173193
-0.113199
0.208639
-0.10737
0.242669
-0.103075
0.27562
-0.0998068
0.307728
-0.0972531
0.339154
-0.0951944
-0.0937502
0.370103
0.0511042
-0.209158
0.0939109
-0.175164
0.133267
-0.160806
0.169965
-0.149897
0.204784
-0.142189
0.238217
-0.136508
0.270592
-0.132182
0.302138
-0.128799
0.333012
-0.126069
-0.124152
0.363414
0.0497829
-0.258941
0.0915074
-0.216888
0.129893
-0.199191
0.165703
-0.185707
0.19969
-0.176176
0.23233
-0.169148
0.263943
-0.163795
0.294746
-0.159602
0.324887
-0.15621
-0.153825
0.35456
0.0481463
-0.307087
0.0885368
-0.257279
0.125716
-0.236371
0.160425
-0.220416
0.19338
-0.209131
0.22504
-0.200808
0.255713
-0.194467
0.285602
-0.189491
0.31484
-0.185448
-0.182595
0.34361
0.0461924
-0.353279
0.0850154
-0.296102
0.120767
-0.272123
0.154152
-0.253801
0.185879
-0.240857
0.216382
-0.231311
0.245949
-0.224035
0.274773
-0.218314
0.302955
-0.21363
-0.210298
0.330657
0.0439306
-0.39721
0.0809393
-0.333111
0.115058
-0.306241
0.146927
-0.285669
0.177222
-0.271153
0.206387
-0.260476
0.234702
-0.252351
0.262344
-0.245956
0.28938
-0.240666
-0.236754
0.315836
0.0413594
-0.438569
0.0763315
-0.368083
0.10861
-0.33852
0.138768
-0.315827
0.167453
-0.299838
0.195094
-0.288117
0.222001
-0.279257
0.248387
-0.272343
0.274413
-0.266692
-0.261716
0.299375
0.0384931
0.0711963
0.101463
0.12971
0.156576
0.182491
0.207826
0.232985
0.259118
0.281429
0.3945
-0.017672
3.87126e-06
0.403232
-0.00873618
4.07267e-06
0.408374
-0.00514409
2.30889e-06
0.411507
-0.0031354
1.5855e-06
0.413469
-0.00196314
1.24275e-06
0.414701
-0.0012325
9.84678e-07
0.415455
-0.000754497
7.62995e-07
0.415885
-0.000430947
5.64828e-07
0.416088
-0.000203224
3.83595e-07
0.416139
-5.12809e-05
2.57895e-07
0.416069
6.93022e-05
1.28776e-07
0.415898
0.000170917
8.07945e-08
0.415653
0.000245858
1.22894e-08
0.41535
0.000302203
-5.90711e-08
0.415005
0.00034522
-1.19245e-07
0.414627
0.00037889
-1.65626e-07
0.414221
0.000405739
-2.02677e-07
0.413794
0.000427058
-2.27925e-07
0.41335
0.000444001
-2.39128e-07
0.412893
0.000457641
-2.431e-07
0.412424
0.00046883
-2.42096e-07
0.411946
0.000478233
-2.39664e-07
0.411461
0.00048594
-2.36074e-07
0.410969
0.000492241
-2.32758e-07
0.410472
0.000497428
-2.28162e-07
0.40997
0.000501709
-2.25443e-07
0.409465
0.000505257
-2.1968e-07
0.408957
0.000508201
-2.14697e-07
0.408447
0.000510655
-2.07339e-07
0.407934
0.0005127
-2.01096e-07
0.40742
0.000514406
-1.91795e-07
0.406904
0.000515828
-1.83196e-07
0.406387
0.000517017
-1.72187e-07
0.40587
0.000518011
-1.62569e-07
0.405351
0.000518837
-1.49216e-07
0.404831
0.000519526
-1.35849e-07
0.404311
0.000520099
-1.19998e-07
0.403791
0.000520577
-1.05191e-07
0.40327
0.000520973
-8.79704e-08
0.402749
0.000521302
-7.19007e-08
0.402227
0.000521575
-5.57419e-08
0.401706
0.000521804
-4.19678e-08
0.401184
0.000521992
-2.82716e-08
0.400662
0.000522147
-1.6767e-08
0.400139
0.000522278
-7.4968e-09
0.399617
0.00052239
-1.20344e-09
0.399094
0.000522485
1.89863e-09
0.398572
0.000522568
3.7123e-09
0.398049
0.00052264
3.16686e-09
0.397526
0.000522707
1.46752e-09
0.397004
0.000522757
1.81926e-09
0.396481
0.0005228
2.54686e-09
0.395958
0.000522833
4.82012e-09
0.395435
0.000522861
5.89919e-09
0.394912
0.000522882
8.05358e-09
0.394389
0.0005229
8.63835e-09
0.393866
0.000522916
9.07845e-09
0.393343
0.00052293
7.9112e-09
0.392821
0.000522942
6.64464e-09
0.392298
0.000522955
4.60166e-09
0.391775
0.000522965
2.75096e-09
0.391252
0.000522975
5.75351e-10
0.390729
0.000522982
-1.86351e-11
0.390206
0.000522988
-8.48068e-10
0.389683
0.000522991
-5.50593e-10
0.38916
0.000522994
-7.67983e-10
0.388637
0.000522997
-4.82238e-10
0.388114
0.000522999
-1.0187e-09
0.387591
0.000523001
-1.75489e-09
0.387068
0.000523004
-3.09454e-09
0.386545
0.000523007
-4.81624e-09
0.386022
0.00052301
-6.61331e-09
0.385499
0.000523012
-8.57222e-09
0.384976
0.000523014
-1.02539e-08
0.384453
0.000523015
-1.17077e-08
0.38393
0.000523016
-1.28391e-08
0.383407
0.000523015
-1.3592e-08
0.382884
0.000523023
-1.41517e-08
0.382361
0.000522991
-1.47502e-08
0.000522973
-1.53961e-08
0.391925
-0.0350133
0.400636
-0.0174473
0.405817
-0.0103251
0.408997
-0.00631445
0.411002
-0.00396855
0.412274
-0.00250472
0.413066
-0.00154638
0.413532
-0.000896882
0.413769
-0.000440583
0.413851
-0.000132618
0.413813
0.000106527
0.413676
0.000308091
0.413464
0.000458481
0.413195
0.000571267
0.412882
0.00065739
0.412537
0.000724779
0.412164
0.000778536
0.41177
0.000821191
0.411358
0.00085508
0.410934
0.000882357
0.410498
0.000904723
0.410053
0.000923557
0.4096
0.000938983
0.40914
0.000951593
0.408676
0.000961973
0.408207
0.000970538
0.407734
0.000977638
0.407259
0.000983532
0.406781
0.000988446
0.406301
0.000992544
0.40582
0.000995964
0.405337
0.000998818
0.404853
0.00100121
0.404368
0.0010032
0.403881
0.00100487
0.403395
0.00100626
0.402907
0.00100742
0.40242
0.0010084
0.401931
0.00100921
0.401443
0.00100988
0.400954
0.00101044
0.400465
0.00101091
0.399976
0.0010113
0.399486
0.00101163
0.398996
0.0010119
0.398507
0.00101213
0.398017
0.00101232
0.397527
0.00101249
0.397037
0.00101263
0.396547
0.00101276
0.396057
0.00101286
0.395567
0.00101295
0.395076
0.00101302
0.394586
0.00101308
0.394096
0.00101312
0.393606
0.00101316
0.393115
0.00101319
0.392625
0.00101322
0.392135
0.00101324
0.391645
0.00101326
0.391154
0.00101328
0.390664
0.0010133
0.390174
0.00101331
0.389683
0.00101332
0.389193
0.00101333
0.388703
0.00101334
0.388212
0.00101334
0.387722
0.00101335
0.387232
0.00101335
0.386741
0.00101335
0.386251
0.00101336
0.38576
0.00101336
0.38527
0.00101336
0.38478
0.00101337
0.384289
0.00101337
0.383799
0.00101337
0.383309
0.00101336
0.382818
0.00101338
0.382328
0.00101332
0.00101328
0.386781
-0.0516913
0.395456
-0.026122
0.400716
-0.0155852
0.403987
-0.00958519
0.40608
-0.00606165
0.407434
-0.00385857
0.408302
-0.00241483
0.40884
-0.00143466
0.409148
-0.000748067
0.40929
-0.000274499
0.409316
8.04092e-05
0.409246
0.000377959
0.409099
0.000604943
0.408896
0.000774365
0.40865
0.000903919
0.408369
0.00100521
0.408062
0.00108607
0.407733
0.00115014
0.407387
0.00120101
0.407027
0.00124192
0.406657
0.00127543
0.406276
0.00130375
0.405889
0.00132691
0.405494
0.00134584
0.405095
0.00136141
0.404691
0.00137426
0.404284
0.00138491
0.403874
0.00139376
0.403461
0.00140113
0.403046
0.00140728
0.40263
0.00141241
0.402212
0.0014167
0.401793
0.00142028
0.401373
0.00142329
0.400952
0.00142579
0.40053
0.00142789
0.400108
0.00142964
0.399685
0.00143111
0.399262
0.00143233
0.398839
0.00143335
0.398415
0.0014342
0.397991
0.00143492
0.397567
0.00143551
0.397142
0.001436
0.396718
0.00143641
0.396293
0.00143676
0.395868
0.00143705
0.395444
0.0014373
0.395019
0.00143751
0.394594
0.00143771
0.394169
0.00143787
0.393744
0.001438
0.393319
0.0014381
0.392894
0.00143819
0.392468
0.00143826
0.392043
0.00143831
0.391618
0.00143836
0.391193
0.0014384
0.390768
0.00143843
0.390342
0.00143847
0.389917
0.00143849
0.389492
0.00143852
0.389067
0.00143854
0.388642
0.00143856
0.388216
0.00143857
0.387791
0.00143858
0.387366
0.00143858
0.386941
0.00143859
0.386515
0.00143859
0.38609
0.0014386
0.385665
0.00143861
0.38524
0.00143861
0.384814
0.00143861
0.384389
0.00143862
0.383964
0.00143862
0.383539
0.00143862
0.383113
0.00143861
0.382688
0.00143863
0.382263
0.00143854
0.00143848
0.37908
-0.0673572
0.387713
-0.0347549
0.393093
-0.0209652
0.396504
-0.0129964
0.398731
-0.00828791
0.400207
-0.00533547
0.401191
-0.00339849
0.401838
-0.00208183
0.402249
-0.00115872
0.402484
-0.000509997
0.402605
-4.05028e-05
0.402635
0.000348151
0.402587
0.000652727
0.402482
0.000879345
0.402334
0.00105258
0.402151
0.00118801
0.401941
0.00129627
0.401709
0.00138183
0.40146
0.00144973
0.401198
0.00150428
0.400924
0.00154887
0.400641
0.00158675
0.400351
0.00161767
0.400054
0.00164292
0.399751
0.00166369
0.399445
0.00168083
0.399135
0.00169503
0.398822
0.00170682
0.398506
0.00171665
0.398188
0.00172485
0.397869
0.0017317
0.397548
0.00173742
0.397227
0.00174221
0.396904
0.00174621
0.39658
0.00174956
0.396255
0.00175236
0.39593
0.0017547
0.395605
0.00175666
0.395279
0.00175829
0.394953
0.00175966
0.394626
0.0017608
0.394299
0.00176176
0.393972
0.00176255
0.393645
0.00176321
0.393317
0.00176376
0.39299
0.00176423
0.392662
0.00176462
0.392335
0.00176496
0.392007
0.00176525
0.391679
0.00176551
0.391351
0.00176572
0.391023
0.00176589
0.390696
0.00176603
0.390368
0.00176615
0.39004
0.00176624
0.389712
0.00176632
0.389384
0.00176638
0.389056
0.00176643
0.388728
0.00176648
0.388399
0.00176652
0.388071
0.00176655
0.387743
0.00176659
0.387415
0.00176662
0.387087
0.00176664
0.386759
0.00176665
0.386431
0.00176667
0.386103
0.00176668
0.385775
0.00176668
0.385447
0.00176669
0.385119
0.0017667
0.384791
0.0017667
0.384462
0.00176671
0.384134
0.00176671
0.383806
0.00176671
0.383478
0.00176671
0.38315
0.00176671
0.382822
0.0017667
0.382494
0.00176674
0.382166
0.00176661
0.00176654
0.368839
-0.0816365
0.377439
-0.0433546
0.382982
-0.0265077
0.386586
-0.0166003
0.388993
-0.010695
0.390635
-0.00697764
0.391772
-0.00453547
0.392564
-0.00287359
0.393113
-0.00170795
0.393483
-0.000880549
0.393729
-0.000285851
0.393886
0.000191384
0.393969
0.000568756
0.393993
0.000855941
0.393973
0.001072
0.39392
0.00124172
0.393838
0.00137774
0.393735
0.00148485
0.393615
0.00156984
0.393481
0.00163803
0.393337
0.00169356
0.393182
0.00174112
0.39302
0.00177982
0.392852
0.00181142
0.392678
0.00183738
0.3925
0.0018588
0.392319
0.00187654
0.392134
0.00189128
0.391947
0.00190356
0.391758
0.00191382
0.391568
0.00192238
0.391375
0.00192953
0.391182
0.00193551
0.390988
0.00194052
0.390793
0.00194471
0.390597
0.00194821
0.3904
0.00195114
0.390203
0.0019536
0.390006
0.00195565
0.389808
0.00195736
0.38961
0.00195879
0.389412
0.00195999
0.389214
0.00196099
0.389015
0.00196182
0.388816
0.00196251
0.388617
0.00196309
0.388419
0.00196358
0.388219
0.00196401
0.38802
0.00196437
0.387821
0.0019647
0.387622
0.00196496
0.387423
0.00196518
0.387223
0.00196536
0.387024
0.0019655
0.386825
0.00196562
0.386625
0.00196572
0.386426
0.00196579
0.386226
0.00196586
0.386027
0.00196592
0.385827
0.00196597
0.385628
0.00196601
0.385428
0.00196606
0.385229
0.00196609
0.38503
0.00196612
0.38483
0.00196614
0.384631
0.00196615
0.384431
0.00196616
0.384232
0.00196617
0.384032
0.00196618
0.383833
0.00196619
0.383633
0.0019662
0.383434
0.0019662
0.383234
0.00196621
0.383035
0.00196621
0.382835
0.00196621
0.382636
0.00196621
0.382436
0.0019662
0.382237
0.00196624
0.382037
0.00196609
0.001966
0.356083
-0.0941092
0.364675
-0.0519473
0.370427
-0.0322596
0.374281
-0.020454
0.376919
-0.0133336
0.378771
-0.00882888
0.3801
-0.00586442
0.381072
-0.00384639
0.381797
-0.00243238
0.382337
-0.00142125
0.38274
-0.000688265
0.383054
-0.000122474
0.383299
0.000323809
0.383484
0.000670576
0.383622
0.00093413
0.383727
0.00113628
0.383805
0.00130016
0.383861
0.00142866
0.3839
0.00153081
0.383926
0.0016126
0.38394
0.00167883
0.383945
0.00173621
0.383942
0.00178273
0.383933
0.00182069
0.383919
0.00185184
0.3839
0.00187752
0.383878
0.0018988
0.383852
0.00191648
0.383825
0.00193122
0.383795
0.00194352
0.383764
0.00195379
0.383731
0.00196237
0.383697
0.00196955
0.383662
0.00197557
0.383626
0.00198059
0.383589
0.0019848
0.383552
0.00198832
0.383514
0.00199127
0.383476
0.00199373
0.383438
0.00199579
0.383399
0.00199751
0.38336
0.00199896
0.383321
0.00200015
0.383282
0.00200115
0.383242
0.00200198
0.383203
0.00200268
0.383163
0.00200328
0.383123
0.00200379
0.383083
0.00200423
0.383043
0.00200463
0.383003
0.00200494
0.382963
0.00200521
0.382923
0.00200542
0.382883
0.0020056
0.382843
0.00200574
0.382803
0.00200585
0.382763
0.00200595
0.382723
0.00200603
0.382682
0.00200609
0.382642
0.00200616
0.382602
0.00200621
0.382562
0.00200626
0.382522
0.0020063
0.382481
0.00200634
0.382441
0.00200636
0.382401
0.00200638
0.382361
0.00200639
0.38232
0.00200641
0.38228
0.00200641
0.38224
0.00200642
0.3822
0.00200643
0.38216
0.00200644
0.382119
0.00200644
0.382079
0.00200645
0.382039
0.00200645
0.381999
0.00200645
0.381958
0.00200643
0.381918
0.00200647
0.381878
0.00200631
0.00200621
0.340842
-0.104294
0.349471
-0.0605764
0.355485
-0.0382735
0.359652
-0.024621
0.362577
-0.0162584
0.364683
-0.0109349
0.366243
-0.00742457
0.367432
-0.00503486
0.368362
-0.00336223
0.369105
-0.00216509
0.369707
-0.00129001
0.370212
-0.000627381
0.370643
-0.000107248
0.371018
0.000295961
0.371348
0.000603997
0.371639
0.00084474
0.371904
0.00103607
0.372148
0.00118417
0.372376
0.00130331
0.37259
0.00139859
0.372793
0.00147507
0.372987
0.00154243
0.373173
0.00159676
0.373353
0.0016411
0.373527
0.00167742
0.373697
0.00170735
0.373864
0.00173215
0.374028
0.00175276
0.374189
0.00176994
0.374348
0.00178428
0.374506
0.00179626
0.374662
0.00180627
0.374817
0.00181465
0.374971
0.00182166
0.375124
0.00182753
0.375276
0.00183244
0.375428
0.00183655
0.375579
0.00184
0.37573
0.00184287
0.37588
0.00184528
0.376031
0.00184729
0.376181
0.00184897
0.37633
0.00185037
0.37648
0.00185153
0.376629
0.00185251
0.376779
0.00185333
0.376928
0.00185403
0.377077
0.00185463
0.377226
0.00185515
0.377375
0.00185561
0.377524
0.00185598
0.377673
0.0018563
0.377822
0.00185654
0.377971
0.00185675
0.37812
0.00185692
0.378268
0.00185705
0.378417
0.00185716
0.378566
0.00185726
0.378715
0.00185734
0.378864
0.00185741
0.379012
0.00185747
0.379161
0.00185754
0.37931
0.00185758
0.379458
0.00185762
0.379607
0.00185765
0.379756
0.00185767
0.379905
0.00185769
0.380053
0.0018577
0.380202
0.00185771
0.380351
0.00185772
0.380499
0.00185773
0.380648
0.00185774
0.380797
0.00185775
0.380945
0.00185775
0.381094
0.00185775
0.381243
0.00185775
0.381392
0.00185773
0.38154
0.00185778
0.381689
0.00185761
0.00185749
0.323117
-0.111575
0.331836
-0.069295
0.338181
-0.0446193
0.342739
-0.0291784
0.346015
-0.0195347
0.348429
-0.0133491
0.350265
-0.00926051
0.351708
-0.00647747
0.352878
-0.00453197
0.353854
-0.00314182
0.354689
-0.00212524
0.355418
-0.00135563
0.356071
-0.000760454
0.356668
-0.000301405
0.357217
5.52242e-05
0.357731
0.000330936
0.358212
0.000555322
0.35867
0.000726253
0.359112
0.000860758
0.359542
0.000968293
0.359964
0.00105377
0.360375
0.0011311
0.360779
0.00119332
0.361175
0.00124413
0.361567
0.00128561
0.361955
0.00131977
0.362339
0.00134807
0.36272
0.0013716
0.363099
0.00139122
0.363476
0.0014076
0.363851
0.00142128
0.364224
0.00143271
0.364596
0.00144228
0.364968
0.0014503
0.365338
0.00145701
0.365708
0.00146262
0.366077
0.00146732
0.366446
0.00147126
0.366814
0.00147455
0.367182
0.0014773
0.36755
0.0014796
0.367918
0.00148152
0.368285
0.00148312
0.368652
0.00148446
0.369019
0.00148558
0.369386
0.00148652
0.369752
0.00148732
0.370119
0.00148802
0.370485
0.00148861
0.370852
0.00148914
0.371218
0.00148957
0.371585
0.00148993
0.371951
0.00149022
0.372317
0.00149046
0.372684
0.00149065
0.37305
0.00149081
0.373416
0.00149093
0.373782
0.00149104
0.374148
0.00149113
0.374515
0.00149122
0.374881
0.00149129
0.375247
0.00149136
0.375613
0.00149142
0.375979
0.00149146
0.376345
0.00149149
0.376712
0.00149152
0.377078
0.00149154
0.377444
0.00149156
0.37781
0.00149157
0.378176
0.00149158
0.378542
0.00149159
0.378909
0.0014916
0.379275
0.0014916
0.379641
0.00149161
0.380007
0.00149161
0.380373
0.00149161
0.380739
0.00149159
0.381105
0.00149163
0.381472
0.00149146
0.00149134
0.303506
-0.115706
0.312439
-0.0782277
0.319189
-0.0513689
0.324155
-0.034145
0.327773
-0.0231527
0.330476
-0.0160521
0.332569
-0.0113529
0.33425
-0.00815901
0.33565
-0.00593193
0.336853
-0.00434428
0.337914
-0.00318693
0.338878
-0.00231878
0.339767
-0.00164991
0.340598
-0.00113209
0.341388
-0.000734679
0.342133
-0.000414873
0.34285
-0.000161661
0.343547
2.93636e-05
0.344229
0.000179453
0.344897
0.00029967
0.345556
0.000394556
0.346204
0.000483587
0.346846
0.000551093
0.347484
0.00060608
0.348118
0.000651392
0.348749
0.000689022
0.349377
0.000720367
0.350002
0.000746521
0.350625
0.000768377
0.351246
0.000786657
0.351865
0.000801946
0.352483
0.000814742
0.3531
0.000825457
0.353716
0.000834438
0.354331
0.000841953
0.354945
0.000848248
0.355559
0.000853519
0.356172
0.000857941
0.356785
0.000861635
0.357398
0.000864724
0.35801
0.000867307
0.358622
0.000869468
0.359234
0.000871267
0.359846
0.000872766
0.360457
0.000874026
0.361069
0.000875091
0.36168
0.000875997
0.362291
0.000876783
0.362902
0.000877459
0.363513
0.000878057
0.364124
0.000878544
0.364735
0.000878954
0.365346
0.000879282
0.365957
0.000879553
0.366568
0.000879767
0.367179
0.000879942
0.36779
0.000880085
0.368401
0.000880209
0.369012
0.000880313
0.369622
0.00088041
0.370233
0.000880493
0.370844
0.000880573
0.371455
0.000880635
0.372066
0.000880686
0.372676
0.000880724
0.373287
0.000880755
0.373898
0.000880777
0.374509
0.000880794
0.375119
0.000880807
0.37573
0.00088082
0.376341
0.00088083
0.376952
0.000880841
0.377562
0.000880848
0.378173
0.000880855
0.378784
0.000880855
0.379395
0.000880851
0.380005
0.000880836
0.380616
0.000880874
0.381227
0.00088071
0.000880579
0.278708
-0.112986
0.287366
-0.086885
0.294879
-0.0588821
0.300797
-0.0400627
0.305313
-0.027669
0.308793
-0.0195325
0.311546
-0.0141055
0.313792
-0.0104053
0.315684
-0.00782379
0.317324
-0.00598437
0.318783
-0.00464538
0.32011
-0.00364644
0.321345
-0.0028843
0.322508
-0.00229588
0.323607
-0.00183341
0.324665
-0.00147299
0.325691
-0.00118757
0.326688
-0.000967418
0.327661
-0.000793917
0.328616
-0.000655191
0.329553
-0.000542213
0.330483
-0.000446928
0.331406
-0.00037178
0.332322
-0.000309754
0.333232
-0.000258664
0.334138
-0.000216261
0.335039
-0.00018094
0.335937
-0.000151464
0.336832
-0.000126835
0.337725
-0.000106238
0.338616
-8.90112e-05
0.339505
-7.45965e-05
0.340393
-6.25275e-05
0.34128
-5.24162e-05
0.342166
-4.39532e-05
0.343051
-3.68669e-05
0.343936
-3.09329e-05
0.344819
-2.59599e-05
0.345703
-2.18034e-05
0.346586
-1.83285e-05
0.347469
-1.54239e-05
0.348351
-1.29953e-05
0.349233
-1.09719e-05
0.350115
-9.28536e-06
0.350997
-7.86718e-06
0.351879
-6.6685e-06
0.352761
-5.64627e-06
0.353642
-4.76244e-06
0.354524
-3.999e-06
0.355405
-3.33227e-06
0.356286
-2.78179e-06
0.357168
-2.32015e-06
0.358049
-1.9488e-06
0.35893
-1.64352e-06
0.359811
-1.40071e-06
0.360692
-1.20355e-06
0.361574
-1.04145e-06
0.362455
-9.03117e-07
0.363336
-7.8403e-07
0.364217
-6.76271e-07
0.365098
-5.81828e-07
0.365979
-4.94654e-07
0.36686
-4.2416e-07
0.367741
-3.66476e-07
0.368622
-3.22706e-07
0.369503
-2.87834e-07
0.370384
-2.62719e-07
0.371265
-2.43603e-07
0.372146
-2.28877e-07
0.373027
-2.15401e-07
0.373908
-2.04325e-07
0.374789
-1.92818e-07
0.37567
-1.83866e-07
0.376551
-1.76558e-07
0.377432
-1.76525e-07
0.378314
-1.79775e-07
0.379195
-1.94062e-07
0.380076
-1.68913e-07
0.380957
-3.0944e-07
-4.47137e-07
1.06339
-0.103771
-1.0726
1.05299
-0.0764924
1.05026
-0.0561506
1.05106
-0.0408618
1.05319
-0.0298007
1.05559
-0.0219311
1.05783
-0.0163432
1.05977
-0.0123473
1.0614
-0.00945442
1.06275
-0.00733084
1.06385
-0.00574804
1.06475
-0.00454875
1.0655
-0.00362585
1.06611
-0.00290713
1.06661
-0.00234136
1.06704
-0.00189421
1.06739
-0.00153912
1.06768
-0.00125763
1.06792
-0.00103298
1.06811
-0.00085191
1.06828
-0.000704531
1.06841
-0.00058285
1.06852
-0.000484058
1.06862
-0.000402909
1.06869
-0.000335926
1.06876
-0.000280427
1.06881
-0.000234311
1.06886
-0.000195912
1.06889
-0.000163889
1.06892
-0.000137153
1.06895
-0.000114817
1.06897
-9.61459e-05
1.06899
-8.0529e-05
1.069
-6.74614e-05
1.06902
-5.65274e-05
1.06903
-4.73771e-05
1.06904
-3.97183e-05
1.06904
-3.33071e-05
1.06905
-2.79439e-05
1.06906
-2.34584e-05
1.06906
-1.97064e-05
1.06906
-1.65691e-05
1.06907
-1.39457e-05
1.06907
-1.17535e-05
1.06907
-9.91322e-06
1.06907
-8.36545e-06
1.06907
-7.05538e-06
1.06908
-5.94211e-06
1.06908
-4.99568e-06
1.06908
-4.1898e-06
1.06908
-3.5089e-06
1.06908
-2.93637e-06
1.06908
-2.46603e-06
1.06908
-2.07757e-06
1.06908
-1.7594e-06
1.06908
-1.49751e-06
1.06908
-1.27987e-06
1.06908
-1.09722e-06
1.06908
-9.41884e-07
1.06908
-8.08308e-07
1.06908
-6.93922e-07
1.06908
-5.93517e-07
1.06908
-5.08388e-07
1.06908
-4.38288e-07
1.06908
-3.81928e-07
1.06908
-3.36521e-07
1.06908
-3.00679e-07
1.06908
-2.72674e-07
1.06908
-2.50356e-07
1.06908
-2.32335e-07
1.06908
-2.17578e-07
1.06908
-2.05146e-07
1.06908
-1.95861e-07
1.06908
-1.89685e-07
1.06908
-1.89237e-07
1.06908
-1.94007e-07
1.06908
-2.07003e-07
1.06908
-2.18753e-07
1.06908
-2.99857e-07
-3.86332e-07
1.07456
-0.0851811
-1.09315
1.06435
-0.0662793
1.05971
-0.0515115
1.05823
-0.0393843
1.05841
-0.0299798
1.05934
-0.0228635
1.06054
-0.0175351
1.06174
-0.0135548
1.06286
-0.0105682
1.06384
-0.0083116
1.06468
-0.00658999
1.06539
-0.00526229
1.06599
-0.00422736
1.0665
-0.003413
1.06693
-0.00276702
1.06728
-0.00225195
1.06758
-0.00183952
1.06783
-0.00150845
1.06804
-0.00124155
1.06822
-0.00102504
1.06836
-0.000848314
1.06848
-0.000703125
1.06858
-0.000584112
1.06866
-0.000486118
1.06873
-0.000405138
1.06879
-0.000338032
1.06884
-0.000282294
1.06888
-0.000235912
1.06891
-0.000197258
1.06894
-0.000165008
1.06896
-0.000138078
1.06898
-0.000115576
1.069
-9.6765e-05
1.06901
-8.10322e-05
1.06902
-6.78714e-05
1.06903
-5.68603e-05
1.06904
-4.76462e-05
1.06905
-3.99356e-05
1.06905
-3.34841e-05
1.06906
-2.8087e-05
1.06906
-2.35714e-05
1.06907
-1.9794e-05
1.06907
-1.66334e-05
1.06907
-1.39887e-05
1.06907
-1.17711e-05
1.06907
-9.90896e-06
1.06907
-8.34013e-06
1.06908
-7.01566e-06
1.06908
-5.89609e-06
1.06908
-4.94854e-06
1.06908
-4.15188e-06
1.06908
-3.48303e-06
1.06908
-2.92618e-06
1.06908
-2.46336e-06
1.06908
-2.07994e-06
1.06908
-1.76196e-06
1.06908
-1.49701e-06
1.06908
-1.27524e-06
1.06908
-1.08818e-06
1.06908
-9.29611e-07
1.06908
-7.94797e-07
1.06908
-6.79436e-07
1.06908
-5.82018e-07
1.06908
-5.00867e-07
1.06908
-4.34254e-07
1.06908
-3.79949e-07
1.06908
-3.36144e-07
1.06908
-3.01138e-07
1.06908
-2.7291e-07
1.06908
-2.50208e-07
1.06908
-2.31997e-07
1.06908
-2.17658e-07
1.06908
-2.07204e-07
1.06908
-2.00807e-07
1.06908
-1.99519e-07
1.06908
-2.04364e-07
1.06908
-2.16653e-07
1.06908
-2.35735e-07
1.06908
-2.88797e-07
-3.43476e-07
1.08325
-0.0664381
-1.10199
1.07254
-0.0555723
1.06665
-0.0456233
1.06378
-0.0365119
1.06268
-0.0288803
1.06256
-0.0227451
1.06294
-0.0179171
1.06355
-0.0141572
1.06422
-0.011237
1.06487
-0.00896588
1.06547
-0.00719224
1.06601
-0.00579843
1.06648
-0.00469575
1.06688
-0.00381762
1.06723
-0.00311424
1.06752
-0.00254833
1.06778
-0.00209132
1.06799
-0.00172117
1.06817
-0.00142035
1.06832
-0.00117488
1.06844
-0.000973732
1.06855
-0.000808278
1.06864
-0.000672032
1.06871
-0.000559541
1.06877
-0.000466425
1.06882
-0.000389181
1.06886
-0.000324986
1.0689
-0.000271553
1.06893
-0.000227022
1.06895
-0.00018987
1.06898
-0.000158852
1.06899
-0.000132937
1.06901
-0.000111275
1.06902
-9.31623e-05
1.06903
-7.80121e-05
1.06904
-6.53379e-05
1.06905
-5.47334e-05
1.06905
-4.58601e-05
1.06906
-3.84354e-05
1.06906
-3.22232e-05
1.06906
-2.7025e-05
1.06907
-2.26755e-05
1.06907
-1.90353e-05
1.06907
-1.59881e-05
1.06907
-1.34344e-05
1.06907
-1.12923e-05
1.06908
-9.49217e-06
1.06908
-7.97743e-06
1.06908
-6.7016e-06
1.06908
-5.62653e-06
1.06908
-4.72333e-06
1.06908
-3.96551e-06
1.06908
-3.332e-06
1.06908
-2.80343e-06
1.06908
-2.3632e-06
1.06908
-1.99652e-06
1.06908
-1.69048e-06
1.06908
-1.43443e-06
1.06908
-1.21935e-06
1.06908
-1.03813e-06
1.06908
-8.85042e-07
1.06908
-7.55441e-07
1.06908
-6.46328e-07
1.06908
-5.55138e-07
1.06908
-4.79615e-07
1.06908
-4.17507e-07
1.06908
-3.66808e-07
1.06908
-3.25728e-07
1.06908
-2.92521e-07
1.06908
-2.6587e-07
1.06908
-2.4466e-07
1.06908
-2.28257e-07
1.06908
-2.16422e-07
1.06908
-2.09223e-07
1.06908
-2.07153e-07
1.06908
-2.11046e-07
1.06908
-2.21766e-07
1.06908
-2.40083e-07
1.06908
-2.74377e-07
-3.09166e-07
1.08792
-0.0509417
-1.10342
1.078
-0.045655
1.07182
-0.039438
1.06823
-0.032919
1.06632
-0.026972
1.06545
-0.0218814
1.06521
-0.0176718
1.06531
-0.0142566
1.06558
-0.0115136
1.06594
-0.00931864
1.06631
-0.00756408
1.06667
-0.00615802
1.067
-0.00502816
1.0673
-0.00411661
1.06756
-0.00337856
1.06779
-0.00277912
1.06799
-0.0022909
1.06817
-0.00189231
1.06831
-0.0015661
1.06843
-0.00129836
1.06854
-0.00107802
1.06863
-0.000896226
1.0687
-0.000745995
1.06876
-0.000621617
1.06882
-0.000518454
1.06886
-0.000432749
1.0689
-0.000361447
1.06893
-0.000302055
1.06895
-0.000252533
1.06897
-0.000211207
1.06899
-0.000176695
1.06901
-0.000147859
1.06902
-0.000123754
1.06903
-0.000103597
1.06904
-8.67376e-05
1.06904
-7.26334e-05
1.06905
-6.08327e-05
1.06906
-5.09585e-05
1.06906
-4.2696e-05
1.06906
-3.5782e-05
1.06907
-2.99962e-05
1.06907
-2.51543e-05
1.06907
-2.11017e-05
1.06907
-1.77088e-05
1.06907
-1.48666e-05
1.06908
-1.2484e-05
1.06908
-1.04846e-05
1.06908
-8.80538e-06
1.06908
-7.3941e-06
1.06908
-6.20778e-06
1.06908
-5.21184e-06
1.06908
-4.37652e-06
1.06908
-3.67718e-06
1.06908
-3.09247e-06
1.06908
-2.60416e-06
1.06908
-2.19646e-06
1.06908
-1.85577e-06
1.06908
-1.57073e-06
1.06908
-1.33174e-06
1.06908
-1.13099e-06
1.06908
-9.62063e-07
1.06908
-8.19801e-07
1.06908
-7.00297e-07
1.06908
-6.00352e-07
1.06908
-5.17245e-07
1.06908
-4.48543e-07
1.06908
-3.92095e-07
1.06908
-3.46031e-07
1.06908
-3.08656e-07
1.06908
-2.78615e-07
1.06908
-2.54783e-07
1.06908
-2.36436e-07
1.06908
-2.23157e-07
1.06908
-2.14822e-07
1.06908
-2.11562e-07
1.06908
-2.14077e-07
1.06908
-2.22516e-07
1.06908
-2.36964e-07
1.06908
-2.59348e-07
-2.81241e-07
1.0899
-0.0390108
-1.10184
1.08135
-0.037104
1.07547
-0.0335502
1.07164
-0.0290973
1.06929
-0.0246232
1.06794
-0.0205303
1.06724
-0.0169702
1.06695
-0.0139622
1.0669
-0.0114637
1.06699
-0.00940817
1.06715
-0.00772615
1.06734
-0.00635163
1.06754
-0.00522926
1.06774
-0.00431128
1.06792
-0.00355961
1.06808
-0.00294317
1.06823
-0.00243677
1.06836
-0.00202018
1.06847
-0.00167695
1.06856
-0.00139368
1.06865
-0.00115948
1.06871
-0.000965538
1.06877
-0.000804736
1.06882
-0.000671236
1.06886
-0.000560264
1.0689
-0.000467912
1.06893
-0.000390977
1.06895
-0.000326828
1.06898
-0.0002733
1.06899
-0.000228604
1.06901
-0.000191263
1.06902
-0.000160054
1.06903
-0.00013396
1.06904
-0.000112137
1.06905
-9.38811e-05
1.06905
-7.86079e-05
1.06906
-6.58282e-05
1.06906
-5.51343e-05
1.06906
-4.61853e-05
1.06907
-3.86963e-05
1.06907
-3.24289e-05
1.06907
-2.71835e-05
1.06907
-2.2793e-05
1.06907
-1.91172e-05
1.06908
-1.60388e-05
1.06908
-1.34593e-05
1.06908
-1.12966e-05
1.06908
-9.48228e-06
1.06908
-7.95953e-06
1.06908
-6.6813e-06
1.06908
-5.60892e-06
1.06908
-4.70976e-06
1.06908
-3.95656e-06
1.06908
-3.32618e-06
1.06908
-2.79897e-06
1.06908
-2.3582e-06
1.06908
-1.98958e-06
1.06908
-1.68112e-06
1.06908
-1.42271e-06
1.06908
-1.206e-06
1.06908
-1.02406e-06
1.06908
-8.71258e-07
1.06908
-7.43113e-07
1.06908
-6.35947e-07
1.06908
-5.46676e-07
1.06908
-4.72652e-07
1.06908
-4.11597e-07
1.06908
-3.61556e-07
1.06908
-3.20828e-07
1.06908
-2.88015e-07
1.06908
-2.61974e-07
1.06908
-2.4189e-07
1.06908
-2.2721e-07
1.06908
-2.17624e-07
1.06908
-2.13004e-07
1.06908
-2.13763e-07
1.06908
-2.19624e-07
1.06908
-2.29946e-07
1.06908
-2.44224e-07
-2.57746e-07