/*--------------------------------*- C++ -*----------------------------------*\
  =========                 |
  \\      /  F ield         | OpenFOAM: The Open Source CFD Toolbox
   \\    /   O peration     | Website:  https://openfoam.org
    \\  /    A nd           | Version:  10
     \\/     M anipulation  |
\*---------------------------------------------------------------------------*/
FoamFile
{
    format      ascii;
    class       volVectorField;
    location    "6.4416e-05";
    object      U;
}
// * * * * * * * * * * * * * * * * * * * * * * * * * * * * * * * * * * * * * //

dimensions      [0 1 -1 0 0 0 0];

internalField   nonuniform List<vector> 
7600
(
(4.6617 -3.4394 5.50183e-20)
(3.49682 -3.1779 -3.19947e-19)
(3.83303 -2.09201 6.63642e-19)
(3.74673 -1.67275 7.01423e-19)
(3.72536 -1.33712 -2.03566e-19)
(3.70864 -1.09458 4.47628e-19)
(3.69612 -0.913975 0)
(3.68562 -0.778771 4.07147e-19)
(3.68867 -0.668329 -3.81063e-19)
(3.58636 -0.66358 0)
(5.20329 -3.36504 1.1626e-19)
(3.99105 -3.10467 2.17454e-19)
(4.15918 -2.04203 -6.83389e-19)
(4.00713 -1.63258 -4.73943e-19)
(3.9331 -1.30481 -5.3125e-19)
(3.87789 -1.0678 -4.4769e-19)
(3.83595 -0.89056 0)
(3.80211 -0.755459 4.72018e-19)
(3.78306 -0.636952 -1.49914e-20)
(3.68492 -0.643858 3.61647e-19)
(5.72239 -3.20237 -4.42118e-19)
(4.46608 -2.95265 0)
(4.47228 -1.94091 7.0416e-19)
(4.25735 -1.55155 -6.49386e-19)
(4.13292 -1.23983 1.13982e-18)
(4.04109 -1.01428 -2.73752e-19)
(3.97165 -0.845294 7.89057e-19)
(3.91702 -0.716065 -9.56053e-19)
(3.88059 -0.602821 4.71831e-19)
(3.78881 -0.608812 -1.18948e-18)
(6.21008 -2.95985 4.90277e-19)
(4.91279 -2.72806 0)
(4.7662 -1.79218 -7.04261e-19)
(4.49218 -1.4324 2.94132e-19)
(4.32045 -1.14432 -2.90686e-19)
(4.19443 -0.935851 0)
(4.09945 -0.779546 -2.22928e-19)
(4.02553 -0.659852 2.04779e-19)
(3.97269 -0.554817 -1.00113e-18)
(3.88294 -0.559619 -6.06633e-20)
(6.65389 -2.64339 2.16015e-19)
(5.31939 -2.43591 -8.60183e-19)
(5.03349 -1.59917 -2.14601e-19)
(4.70566 -1.27788 4.24924e-19)
(4.49095 -1.02062 0)
(4.33394 -0.834485 3.45313e-19)
(4.21583 -0.694871 -9.19046e-19)
(4.12441 -0.587893 2.5041e-19)
(4.05658 -0.493861 5.29312e-19)
(3.96834 -0.498241 4.78146e-19)
(7.04307 -2.26093 -1.05192e-18)
(5.67567 -2.08324 6.91052e-19)
(5.26749 -1.36657 4.70286e-19)
(4.89245 -1.09173 -4.24986e-19)
(4.64014 -0.871767 0)
(4.45604 -0.712662 3.84569e-19)
(4.31773 -0.593269 -3.51097e-19)
(4.21099 -0.501768 -1.85411e-20)
(4.12995 -0.421242 -3.08719e-19)
(4.04294 -0.425375 5.74075e-19)
(7.36817 -1.82183 5.85002e-19)
(5.97259 -1.67818 0)
(5.46213 -1.09984 0)
(5.0478 -0.878451 -2.79133e-19)
(4.76425 -0.701388 2.55978e-19)
(4.55758 -0.573304 2.12613e-19)
(4.40247 -0.477159 -6.03551e-19)
(4.283 -0.403492 0)
(4.19088 -0.338608 -1.60816e-20)
(4.10492 -0.342301 -6.46376e-19)
(7.62152 -1.33604 1.07062e-19)
(6.20214 -1.23055 -9.04687e-20)
(5.61245 -0.805428 0)
(5.16778 -0.643254 3.92698e-19)
(4.86006 -0.513555 -6.23955e-19)
(4.63599 -0.419716 0)
(4.46792 -0.349311 8.47668e-19)
(4.33861 -0.295354 4.08049e-19)
(4.23789 -0.247803 -3.84009e-19)
(4.15275 -0.250755 6.75039e-19)
(7.79672 -0.815318 0)
(6.3583 -0.752538 -1.03364e-19)
(5.7145 -0.491525 -5.67147e-21)
(5.24919 -0.392437 -2.38943e-19)
(4.92505 -0.313234 2.66221e-19)
(4.68924 -0.255971 0)
(4.51237 -0.213029 -2.23331e-19)
(4.37638 -0.180093 -2.06834e-19)
(4.26981 -0.151064 0)
(4.18526 -0.152947 9.6688e-20)
(7.8929 -0.274347 1.9215e-33)
(6.43759 -0.254182 -5.55382e-20)
(5.76595 -0.165573 2.30805e-19)
(5.2903 -0.132214 1.19525e-19)
(4.9579 -0.105356 -3.80284e-20)
(4.71615 -0.0860884 6.86569e-20)
(4.53485 -0.0716081 0)
(4.39549 -0.0605135 1.06673e-34)
(4.28596 -0.0507255 -5.37849e-20)
(4.20172 -0.0513309 -4.66073e-20)
(0.955661 -0.274556 1.4738e-20)
(0.0794179 -0.253797 1.11754e-20)
(1.58293 -0.165355 -1.08835e-20)
(1.94646 -0.131968 1.05967e-20)
(2.28471 -0.105224 8.25622e-21)
(2.52825 -0.0858853 -1.01543e-20)
(2.71055 -0.0714068 0)
(2.8504 -0.0602813 -3.26468e-35)
(2.95963 -0.0515434 2.19584e-20)
(3.05108 -0.0447052 -6.43088e-20)
(1.04178 -0.808046 0)
(0.158014 -0.744005 2.26369e-20)
(1.63347 -0.487933 -1.95637e-20)
(1.98712 -0.389983 -6.26714e-21)
(2.31729 -0.311516 3.63234e-20)
(2.55498 -0.25464 0)
(2.73288 -0.211922 -6.42426e-20)
(2.86936 -0.179037 -7.37135e-20)
(2.97555 -0.15323 0)
(3.06718 -0.13271 4.38639e-20)
(1.21079 -1.32547 2.50181e-21)
(0.313306 -1.2204 -2.11592e-21)
(1.73477 -0.800996 0)
(2.06815 -0.639981 5.90439e-20)
(2.38212 -0.511114 -1.28243e-19)
(2.60811 -0.417692 0)
(2.77722 -0.347542 1.94895e-19)
(2.90696 -0.293532 -8.73194e-20)
(3.0071 -0.251263 3.10535e-19)
(3.09902 -0.216643 1.73369e-19)
(1.45836 -1.80896 -4.03015e-19)
(0.541034 -1.66556 0)
(1.88391 -1.094 0)
(2.18738 -0.874105 -7.85443e-20)
(2.47751 -0.698058 1.09364e-19)
(2.68627 -0.570429 -6.35321e-20)
(2.84246 -0.474577 -7.26406e-20)
(2.96228 -0.400695 0)
(3.05357 -0.343149 -1.61427e-19)
(3.14582 -0.293847 -1.73345e-19)
(1.77825 -2.24722 7.66191e-19)
(0.835489 -2.06935 3.9049e-19)
(2.07712 -1.36006 4.05726e-20)
(2.34187 -1.08676 -6.93669e-20)
(2.60114 -0.867898 0)
(2.78758 -0.709197 -1.32481e-19)
(2.92706 -0.589919 1.2095e-19)
(3.03407 -0.497883 3.13257e-19)
(3.1139 -0.426651 1.9466e-19)
(3.20651 -0.361786 -3.20559e-19)
(2.16233 -2.62952 -4.35213e-19)
(1.18922 -2.42198 -2.85555e-19)
(2.3095 -1.5926 -1.41166e-19)
(2.52774 -1.27273 6.93538e-20)
(2.74993 -1.0165 0)
(2.90958 -0.830591 -1.39715e-19)
(3.02899 -0.690767 -1.6208e-19)
(3.12065 -0.582732 1.57795e-19)
(3.1868 -0.49975 3.21655e-19)
(3.27979 -0.418085 3.40259e-19)
(2.60082 -2.94642 -5.15769e-19)
(1.59307 -2.7151 0)
(2.57548 -1.78573 -1.35728e-19)
(2.7404 -1.42752 2.92165e-19)
(2.92019 -1.1403 -3.57761e-19)
(3.04928 -0.931714 0)
(3.14587 -0.774784 1.42893e-19)
(3.2201 -0.653257 -1.37491e-19)
(3.27079 -0.560727 -6.45172e-19)
(3.36428 -0.460555 -1.57696e-22)
(3.08246 -3.19015 6.38975e-19)
(2.03745 -2.9415 -5.61967e-20)
(2.86804 -1.93543 1.82193e-19)
(2.97459 -1.54737 -2.18599e-19)
(3.10778 -1.23617 5.50488e-19)
(3.20322 -1.01031 1.60717e-19)
(3.27488 -0.840133 4.91796e-19)
(3.33026 -0.707974 -9.54415e-19)
(3.36433 -0.608337 3.23489e-19)
(3.45874 -0.487206 -6.80347e-19)
(3.59466 -3.3547 -2.0156e-19)
(2.51079 -3.09572 -1.56811e-19)
(3.18008 -2.03775 -1.83428e-19)
(3.2244 -1.62948 -3.29348e-19)
(3.30789 -1.30197 -2.95319e-19)
(3.36756 -1.06438 -3.51703e-19)
(3.41285 -0.885494 0)
(3.4488 -0.746205 -3.62689e-19)
(3.46621 -0.642215 6.52955e-19)
(3.56133 -0.494979 3.40225e-19)
(4.12541 -3.43754 2.41163e-19)
(3.00418 -3.17758 1.7441e-19)
(3.50536 -2.0919 1.68134e-19)
(3.48458 -1.67257 1.36478e-19)
(3.51593 -1.33655 1.72505e-19)
(3.53804 -1.09322 3.51655e-19)
(3.55603 -0.910639 0)
(3.57378 -0.769171 3.4666e-19)
(3.58395 -0.668622 -3.32547e-19)
(3.67852 -0.482714 0)
(3.19287 -0.0279749 -1.43762e-20)
(3.34194 -0.0136619 1.52902e-20)
(3.4194 -0.00795931 0)
(3.46858 -0.00496617 0)
(3.50132 -0.00327274 0)
(3.52415 -0.00223798 -2.11594e-20)
(3.54063 -0.00156571 1.99503e-20)
(3.55287 -0.00110579 0)
(3.56221 -0.000797977 1.02558e-20)
(3.56949 -0.000598529 -1.15535e-20)
(3.57522 -0.000460776 0)
(3.57978 -0.000390332 0)
(3.58339 -0.000327576 0)
(3.58628 -0.000270948 0)
(3.58861 -0.00022346 0)
(3.59051 -0.000184509 1.02626e-20)
(3.59208 -0.000152717 -2.67777e-23)
(3.59337 -0.000126742 -1.02617e-20)
(3.59444 -0.000105792 0)
(3.59533 -8.87093e-05 0)
(3.59607 -7.45383e-05 0)
(3.59669 -6.25174e-05 1.27615e-21)
(3.59722 -5.25442e-05 0)
(3.59765 -4.43217e-05 0)
(3.59802 -3.75107e-05 0)
(3.59833 -3.18259e-05 0)
(3.59859 -2.70638e-05 0)
(3.59881 -2.30562e-05 0)
(3.59899 -1.96833e-05 1.14756e-20)
(3.59915 -1.68321e-05 -2.04183e-20)
(3.59928 -1.44233e-05 7.07613e-24)
(3.59939 -1.23812e-05 1.02243e-20)
(3.59948 -1.06552e-05 0)
(3.59956 -9.18949e-06 0)
(3.59963 -7.94956e-06 0)
(3.59969 -6.89525e-06 1.28178e-21)
(3.59974 -6.00247e-06 0)
(3.59978 -5.24118e-06 0)
(3.59981 -4.59272e-06 0)
(3.59984 -4.03382e-06 0)
(3.59986 -3.55347e-06 -1.03068e-20)
(3.59988 -3.13444e-06 9.0303e-21)
(3.5999 -2.77045e-06 0)
(3.59992 -2.44749e-06 -5.17154e-21)
(3.59993 -2.16458e-06 5.1783e-21)
(3.59994 -1.91568e-06 0)
(3.59995 -1.70299e-06 5.19058e-21)
(3.59996 -1.52027e-06 -5.19739e-21)
(3.59996 -1.36703e-06 -1.30094e-21)
(3.59997 -1.24083e-06 0)
(3.59997 -1.13154e-06 5.21693e-21)
(3.59998 -1.0378e-06 -5.22381e-21)
(3.59998 -9.4942e-07 5.23041e-21)
(3.59998 -8.67506e-07 -5.23732e-21)
(3.59999 -7.88231e-07 0)
(3.59999 -7.10896e-07 5.25094e-21)
(3.59999 -6.3784e-07 -5.2579e-21)
(3.59999 -5.67502e-07 -5.26479e-21)
(3.59999 -5.04404e-07 5.27179e-21)
(3.59999 -4.4658e-07 -5.27876e-21)
(3.59999 -3.96824e-07 2.64291e-21)
(3.6 -3.54118e-07 2.64642e-21)
(3.6 -3.15617e-07 -1.32498e-21)
(3.6 -2.79818e-07 0)
(3.6 -2.46676e-07 0)
(3.6 -2.15333e-07 0)
(3.6 -1.84956e-07 0)
(3.6 -1.55273e-07 2.66779e-21)
(3.6 -1.27688e-07 -2.67139e-21)
(3.6 -1.02016e-07 -4.0125e-21)
(3.6 -7.87752e-08 2.67862e-21)
(3.6 -5.85525e-08 1.34112e-21)
(3.6 -4.16959e-08 -2.68589e-21)
(3.6 -2.85161e-08 1.34477e-21)
(3.6 -1.8386e-08 0)
(3.6 -1.21651e-08 0)
(3.6 -1.10448e-08 0)
(3.60001 -4.07682e-09 0)
(3.59995 -3.70145e-08 -1.69207e-22)
(3.60003 -1.13223e-07 1.69439e-22)
(3.20091 -0.0834224 -3.30201e-20)
(3.34538 -0.0409366 2.84057e-20)
(3.42057 -0.023935 2.17804e-21)
(3.46906 -0.0149513 -4.02078e-20)
(3.50151 -0.00985722 3.55356e-20)
(3.52423 -0.00674259 1.24068e-21)
(3.54066 -0.00472037 -2.5137e-21)
(3.55287 -0.00333817 -4.09195e-20)
(3.56219 -0.00239871 4.09675e-20)
(3.56945 -0.00178777 4.26265e-20)
(3.57518 -0.00137556 -4.39689e-20)
(3.57974 -0.00115384 4.14168e-20)
(3.58336 -0.000979428 -4.14657e-20)
(3.58625 -0.000812709 0)
(3.58859 -0.000671481 4.12936e-20)
(3.5905 -0.00055517 -1.06298e-22)
(3.59207 -0.000460103 -8.2465e-20)
(3.59336 -0.000382336 3.86558e-20)
(3.59443 -0.000319508 2.56993e-21)
(3.59532 -0.000268237 4.10397e-20)
(3.59607 -0.000225668 -8.33161e-23)
(3.59669 -0.000189502 -4.2336e-20)
(3.59721 -0.000159491 -4.09565e-20)
(3.59765 -0.000134756 6.33787e-23)
(3.59802 -0.00011424 4.09911e-20)
(3.59833 -9.71302e-05 -4.34916e-20)
(3.59859 -8.27675e-05 4.09811e-20)
(3.59881 -7.06845e-05 4.09439e-20)
(3.59899 -6.04854e-05 -1.31657e-21)
(3.59915 -5.18716e-05 -4.10064e-20)
(3.59928 -4.45627e-05 0)
(3.59939 -3.83698e-05 0)
(3.59948 -3.31053e-05 2.0524e-20)
(3.59956 -2.86391e-05 -4.10881e-20)
(3.59963 -2.48238e-05 2.05642e-20)
(3.59969 -2.15754e-05 -1.28605e-21)
(3.59974 -1.87905e-05 0)
(3.59978 -1.64142e-05 2.06114e-20)
(3.59981 -1.43575e-05 -2.32158e-20)
(3.59984 -1.25856e-05 0)
(3.59986 -1.10422e-05 0)
(3.59988 -9.7039e-06 1.29362e-21)
(3.5999 -8.52568e-06 2.07191e-20)
(3.59992 -7.49094e-06 -1.81516e-20)
(3.59993 -6.58916e-06 2.07657e-20)
(3.59994 -5.80708e-06 -2.07912e-20)
(3.59995 -5.14177e-06 0)
(3.59996 -4.58378e-06 0)
(3.59996 -4.12062e-06 1.30395e-21)
(3.59997 -3.74972e-06 2.08876e-20)
(3.59997 -3.41489e-06 -7.52568e-25)
(3.59998 -3.12605e-06 -4.18764e-20)
(3.59998 -2.84528e-06 2.09638e-20)
(3.59998 -2.59071e-06 2.62364e-21)
(3.59999 -2.33726e-06 0)
(3.59999 -2.10135e-06 -1.05202e-20)
(3.59999 -1.87552e-06 1.05333e-20)
(3.59999 -1.67204e-06 -1.05463e-20)
(3.59999 -1.48605e-06 1.05595e-20)
(3.59999 -1.32545e-06 0)
(3.59999 -1.18314e-06 2.64644e-21)
(3.6 -1.06612e-06 1.0599e-20)
(3.6 -9.51419e-07 -1.19388e-20)
(3.6 -8.48775e-07 0)
(3.6 -7.45475e-07 0)
(3.6 -6.52024e-07 1.06523e-20)
(3.6 -5.57777e-07 -1.06658e-20)
(3.6 -4.7243e-07 0)
(3.6 -3.92469e-07 0)
(3.6 -3.23292e-07 1.33829e-21)
(3.6 -2.62153e-07 -5.35996e-21)
(3.6 -2.11968e-07 1.07335e-20)
(3.6 -1.70848e-07 -2.68679e-21)
(3.6 -1.40763e-07 -5.38043e-21)
(3.6 -1.17822e-07 0)
(3.6 -1.05226e-07 2.69682e-21)
(3.6 -1.05818e-07 0)
(3.60001 -8.73679e-08 0)
(3.59995 -1.88827e-07 -6.76712e-22)
(3.60003 -4.20054e-07 6.77581e-22)
(3.21682 -0.137438 1.78827e-21)
(3.35223 -0.0681642 2.0077e-21)
(3.42296 -0.0401292 6.56128e-20)
(3.47004 -0.0251215 -6.98707e-20)
(3.50192 -0.0165763 2.43203e-21)
(3.52438 -0.0113447 8.52945e-20)
(3.54071 -0.00795199 -1.35184e-21)
(3.55287 -0.00563901 -8.16641e-20)
(3.56215 -0.00400903 -5.16113e-21)
(3.56938 -0.00297775 -5.19053e-21)
(3.57509 -0.00229662 2.61253e-21)
(3.57965 -0.00187708 -5.21852e-21)
(3.5833 -0.0016156 7.83078e-20)
(3.58621 -0.0013483 -8.88309e-20)
(3.58856 -0.00111692 -5.21161e-21)
(3.59047 -0.000924811 8.32235e-20)
(3.59205 -0.000767241 -8.33099e-20)
(3.59334 -0.000637947 -2.59416e-21)
(3.59442 -0.000533436 -7.7789e-21)
(3.59531 -0.000448085 5.1794e-21)
(3.59606 -0.000377188 5.1744e-21)
(3.59668 -0.00031676 5.17011e-21)
(3.59721 -0.000266658 5.1666e-21)
(3.59764 -0.000225372 0)
(3.59801 -0.000191131 0)
(3.59832 -0.000162559 2.58069e-21)
(3.59858 -0.000138576 0)
(3.5988 -0.000118388 0)
(3.59899 -0.000101346 0)
(3.59915 -8.69419e-05 -4.1285e-20)
(3.59928 -7.47238e-05 4.13285e-20)
(3.59939 -6.4363e-05 0)
(3.59948 -5.55565e-05 0)
(3.59956 -4.80751e-05 0)
(3.59963 -4.16856e-05 0)
(3.59969 -3.62338e-05 -4.14216e-20)
(3.59974 -3.15616e-05 1.27886e-23)
(3.59978 -2.75625e-05 8.29823e-20)
(3.59981 -2.41044e-05 -3.89344e-20)
(3.59984 -2.1116e-05 -4.15557e-20)
(3.59986 -1.85176e-05 7.2455e-24)
(3.59988 -1.62578e-05 8.32678e-20)
(3.5999 -1.42738e-05 -4.16752e-20)
(3.59992 -1.25295e-05 -2.60698e-21)
(3.59993 -1.10144e-05 -4.69693e-20)
(3.59994 -9.70205e-06 8.35866e-20)
(3.59995 -8.58909e-06 -4.18364e-20)
(3.59996 -7.65672e-06 0)
(3.59996 -6.88388e-06 0)
(3.59997 -6.25985e-06 1.57356e-20)
(3.59997 -5.69986e-06 -2.10036e-20)
(3.59998 -5.20949e-06 0)
(3.59998 -4.73835e-06 0)
(3.59998 -4.3055e-06 -2.63367e-21)
(3.59999 -3.88177e-06 -5.27296e-21)
(3.59999 -3.48465e-06 0)
(3.59999 -3.11048e-06 -2.11368e-20)
(3.59999 -2.77205e-06 1.85872e-25)
(3.59999 -2.46655e-06 1.58869e-20)
(3.59999 -2.20124e-06 0)
(3.59999 -1.96828e-06 1.85747e-20)
(3.6 -1.77258e-06 -2.12513e-20)
(3.6 -1.58347e-06 2.6593e-21)
(3.6 -1.41075e-06 -5.3244e-21)
(3.6 -1.23921e-06 0)
(3.6 -1.0807e-06 0)
(3.6 -9.25122e-07 0)
(3.6 -7.82464e-07 -5.34774e-21)
(3.6 -6.51762e-07 -1.07072e-20)
(3.6 -5.38044e-07 -1.02215e-26)
(3.6 -4.39721e-07 2.14615e-20)
(3.6 -3.58995e-07 1.09709e-26)
(3.6 -2.93914e-07 -8.06583e-21)
(3.6 -2.46051e-07 0)
(3.6 -2.10203e-07 5.38911e-21)
(3.6 -1.90479e-07 -8.09182e-21)
(3.6 -1.92446e-07 0)
(3.60001 -1.61011e-07 -2.70291e-21)
(3.59995 -3.2775e-07 2.70591e-21)
(3.60003 -7.09748e-07 0)
(3.24023 -0.189034 3.39664e-21)
(3.36245 -0.09533 0)
(3.42663 -0.0566858 8.66952e-21)
(3.47158 -0.0356035 7.60791e-20)
(3.50255 -0.0235211 -7.13182e-20)
(3.52463 -0.0161087 -5.83358e-23)
(3.54079 -0.0113089 8.7504e-20)
(3.55288 -0.00805009 6.02957e-21)
(3.56209 -0.00573622 -7.8123e-20)
(3.56928 -0.0042297 1.05212e-20)
(3.57497 -0.00325453 -8.45751e-20)
(3.57952 -0.00256775 1.79899e-19)
(3.58319 -0.00220776 -1.64103e-19)
(3.58614 -0.00186782 9.5313e-20)
(3.58851 -0.0015556 5.28972e-21)
(3.59043 -0.00129158 5.27533e-21)
(3.59201 -0.00107343 5.26829e-21)
(3.59332 -0.000893423 -7.88623e-20)
(3.59439 -0.000747706 5.43793e-21)
(3.59529 -0.000628574 7.88336e-20)
(3.59604 -0.000529547 8.38207e-20)
(3.59667 -0.0004447 -8.91306e-20)
(3.5972 -0.000374417 -8.89103e-20)
(3.59764 -0.000316536 1.67365e-19)
(3.59801 -0.000268526 -1.11451e-22)
(3.59832 -0.000228442 -8.36457e-20)
(3.59858 -0.000194791 0)
(3.5988 -0.00016645 -8.35125e-20)
(3.59899 -0.000142517 1.67091e-19)
(3.59914 -0.000122281 -8.35781e-20)
(3.59928 -0.000105118 5.22195e-21)
(3.59939 -9.05577e-05 0)
(3.59948 -7.81807e-05 8.35723e-20)
(3.59956 -6.76584e-05 -1.62018e-19)
(3.59963 -5.86718e-05 5.26173e-21)
(3.59969 -5.09974e-05 8.89378e-20)
(3.59974 -4.44202e-05 -4.18607e-20)
(3.59978 -3.87822e-05 4.18952e-20)
(3.59981 -3.39086e-05 4.1909e-20)
(3.59984 -2.96929e-05 -8.38498e-24)
(3.59986 -2.60294e-05 -4.19699e-20)
(3.59988 -2.28411e-05 -4.19911e-20)
(3.5999 -2.00457e-05 3.6773e-20)
(3.59992 -1.75901e-05 -5.25662e-21)
(3.59993 -1.54607e-05 -3.68211e-20)
(3.59994 -1.36181e-05 4.21165e-20)
(3.59995 -1.20559e-05 -5.26834e-21)
(3.59996 -1.07469e-05 0)
(3.59996 -9.66025e-06 -5.27649e-21)
(3.59997 -8.77525e-06 -3.69635e-20)
(3.59997 -7.98398e-06 4.22793e-20)
(3.59998 -7.28718e-06 0)
(3.59998 -6.62235e-06 0)
(3.59998 -6.00911e-06 -3.70829e-20)
(3.59999 -5.41393e-06 4.77179e-20)
(3.59999 -4.85671e-06 0)
(3.59999 -4.33569e-06 0)
(3.59999 -3.86407e-06 2.12602e-20)
(3.59999 -3.43986e-06 5.31933e-21)
(3.59999 -3.07108e-06 -2.66198e-20)
(3.59999 -2.74749e-06 0)
(3.6 -2.47191e-06 0)
(3.6 -2.20758e-06 0)
(3.6 -1.96456e-06 5.3418e-21)
(3.6 -1.72492e-06 -2.13852e-20)
(3.6 -1.50172e-06 -5.35082e-21)
(3.6 -1.28542e-06 4.28428e-20)
(3.6 -1.08707e-06 5.35988e-21)
(3.6 -9.0679e-07 -2.14577e-20)
(3.6 -7.49814e-07 0)
(3.6 -6.15241e-07 0)
(3.6 -5.04884e-07 0)
(3.6 -4.16184e-07 0)
(3.6 -3.5076e-07 -1.07745e-20)
(3.6 -3.02329e-07 1.07836e-20)
(3.6 -2.75318e-07 5.39589e-21)
(3.6 -2.78276e-07 -5.39996e-21)
(3.60001 -2.33949e-07 2.70221e-21)
(3.59995 -4.59279e-07 -2.70452e-21)
(3.60003 -9.81263e-07 0)
(3.27061 -0.237165 -3.48041e-21)
(3.37594 -0.122436 -1.2622e-19)
(3.43171 -0.0737422 1.2562e-19)
(3.47373 -0.0465268 1.52629e-19)
(3.50346 -0.0307849 -1.57638e-19)
(3.52499 -0.0210982 1.58666e-19)
(3.5409 -0.014835 -3.30739e-19)
(3.55289 -0.0106058 1.61702e-19)
(3.56204 -0.00763964 0)
(3.56916 -0.00552194 -1.82099e-19)
(3.57483 -0.00417635 2.57511e-19)
(3.57936 -0.00325828 -1.77628e-19)
(3.58303 -0.00268784 8.62188e-20)
(3.58603 -0.00234686 -5.39474e-21)
(3.58843 -0.00197664 -8.60619e-20)
(3.59038 -0.00165 -5.21568e-21)
(3.59197 -0.00137595 8.06113e-20)
(3.59328 -0.00114735 0)
(3.59436 -0.000961641 0)
(3.59527 -0.000809458 0)
(3.59603 -0.000682801 -5.33855e-21)
(3.59666 -0.000573395 0)
(3.59719 -0.000482879 -8.51296e-20)
(3.59763 -0.000408385 1.70224e-19)
(3.598 -0.000346569 -1.7008e-19)
(3.59831 -0.000294921 8.50281e-20)
(3.59857 -0.000251542 8.48843e-20)
(3.5988 -0.000214986 -7.88022e-23)
(3.59898 -0.000184105 -1.69711e-19)
(3.59914 -0.000157983 8.48632e-20)
(3.59927 -0.000135826 -5.30105e-21)
(3.59939 -0.000117022 0)
(3.59948 -0.000101035 0)
(3.59956 -8.74362e-05 -1.54128e-25)
(3.59963 -7.58221e-05 -5.30077e-21)
(3.59969 -6.58981e-05 -5.30149e-21)
(3.59973 -5.73914e-05 0)
(3.59978 -5.00939e-05 0)
(3.59981 -4.37868e-05 0)
(3.59984 -3.83296e-05 -8.48974e-20)
(3.59986 -3.35897e-05 1.45508e-23)
(3.59989 -2.94636e-05 7.96586e-20)
(3.5999 -2.5851e-05 -7.96762e-20)
(3.59992 -2.26816e-05 9.03454e-20)
(3.59993 -1.99364e-05 3.72122e-20)
(3.59994 -1.75628e-05 -4.25501e-20)
(3.59995 -1.55503e-05 4.78861e-20)
(3.59996 -1.38604e-05 -9.04944e-20)
(3.59996 -1.24542e-05 5.32572e-20)
(3.59997 -1.12979e-05 -5.3281e-21)
(3.59997 -1.02681e-05 0)
(3.59998 -9.35802e-06 0)
(3.59998 -8.49545e-06 -5.33569e-21)
(3.59998 -7.69917e-06 -4.80438e-20)
(3.59999 -6.93171e-06 7.71967e-25)
(3.59999 -6.21543e-06 8.01525e-20)
(3.59999 -5.54905e-06 -8.55384e-20)
(3.59999 -4.94613e-06 8.55811e-20)
(3.59999 -4.40487e-06 -4.28122e-20)
(3.59999 -3.93294e-06 5.35417e-21)
(3.59999 -3.51831e-06 0)
(3.6 -3.16152e-06 -5.35963e-21)
(3.6 -2.82134e-06 2.14493e-20)
(3.6 -2.50747e-06 -2.14603e-20)
(3.6 -2.19986e-06 5.36782e-21)
(3.6 -1.91273e-06 -1.61116e-20)
(3.6 -1.63703e-06 2.14932e-20)
(3.6 -1.38437e-06 -2.15042e-20)
(3.6 -1.1565e-06 4.30304e-20)
(3.6 -9.58048e-07 -4.84341e-20)
(3.6 -7.88481e-07 2.15373e-20)
(3.6 -6.49274e-07 0)
(3.6 -5.37771e-07 -1.61696e-20)
(3.6 -4.5498e-07 1.07853e-20)
(3.6 -3.94182e-07 1.07909e-20)
(3.6 -3.59859e-07 -1.6193e-20)
(3.6 -3.63576e-07 0)
(3.60001 -3.05885e-07 2.70148e-21)
(3.59995 -5.80095e-07 -4.05381e-21)
(3.60003 -1.22853e-06 1.35204e-21)
(3.30735 -0.280663 3.23286e-21)
(3.39252 -0.149556 1.23981e-19)
(3.43833 -0.0914289 -1.27826e-19)
(3.47659 -0.0580224 0)
(3.50469 -0.0384629 4.86115e-21)
(3.52549 -0.0263767 0)
(3.54106 -0.0185702 1.69696e-19)
(3.5529 -0.0133257 -3.419e-19)
(3.562 -0.00967663 1.6682e-19)
(3.56907 -0.00699572 1.75013e-19)
(3.57467 -0.00514655 -1.80446e-19)
(3.57919 -0.00398981 0)
(3.58285 -0.00313413 -1.76387e-19)
(3.58586 -0.00265554 1.81906e-19)
(3.58833 -0.00234211 1.76185e-19)
(3.5903 -0.00198591 -5.76202e-21)
(3.59191 -0.0016672 -1.81441e-19)
(3.59323 -0.00139556 0)
(3.59433 -0.00117294 -5.4719e-21)
(3.59524 -0.000989515 -1.74775e-19)
(3.596 -0.000836484 1.74792e-19)
(3.59664 -0.000702589 -5.44737e-21)
(3.59717 -0.000591942 8.70038e-20)
(3.59761 -0.000500914 -5.54961e-21)
(3.59799 -0.000425324 -1.05916e-22)
(3.5983 -0.000362097 -9.57559e-23)
(3.59857 -0.000308942 -8.67192e-20)
(3.59879 -0.00026411 5.41199e-21)
(3.59898 -0.000226218 0)
(3.59914 -0.000194145 -5.40463e-21)
(3.59927 -0.000166932 -8.64045e-20)
(3.59938 -0.000143828 1.72778e-19)
(3.59948 -0.000124183 -8.09763e-20)
(3.59956 -0.000107462 8.09063e-20)
(3.59963 -9.31818e-05 -1.77979e-19)
(3.59969 -8.09732e-05 1.72541e-19)
(3.59973 -7.05076e-05 -2.53262e-23)
(3.59978 -6.15234e-05 -2.213e-23)
(3.59981 -5.37617e-05 -8.62336e-20)
(3.59984 -4.70454e-05 -8.62057e-20)
(3.59986 -4.12152e-05 8.62141e-20)
(3.59989 -3.61408e-05 5.38754e-21)
(3.5999 -3.1703e-05 0)
(3.59992 -2.78165e-05 0)
(3.59993 -2.44524e-05 9.15789e-20)
(3.59994 -2.15453e-05 -8.62001e-20)
(3.59995 -1.90798e-05 0)
(3.59996 -1.70024e-05 9.15863e-20)
(3.59996 -1.52693e-05 -9.15949e-20)
(3.59997 -1.38289e-05 5.38804e-21)
(3.59997 -1.25532e-05 4.31064e-20)
(3.59998 -1.14212e-05 -4.31105e-20)
(3.59998 -1.03561e-05 -3.77232e-20)
(3.59998 -9.37308e-06 4.31164e-20)
(3.59999 -8.43376e-06 4.31188e-20)
(3.59999 -7.559e-06 5.38962e-21)
(3.59999 -6.74916e-06 -5.61609e-25)
(3.59999 -6.01631e-06 -4.31301e-20)
(3.59999 -5.35968e-06 0)
(3.59999 -4.78432e-06 -4.31373e-20)
(3.59999 -4.27837e-06 4.31415e-20)
(3.6 -3.83868e-06 5.39315e-21)
(3.6 -3.42224e-06 0)
(3.6 -3.03643e-06 0)
(3.6 -2.66198e-06 3.77628e-20)
(3.6 -2.31194e-06 -4.31616e-20)
(3.6 -1.97863e-06 0)
(3.6 -1.67381e-06 0)
(3.6 -1.40041e-06 2.1587e-20)
(3.6 -1.16227e-06 -1.61918e-20)
(3.6 -9.59477e-07 -2.15912e-20)
(3.6 -7.92138e-07 2.15933e-20)
(3.6 -6.58527e-07 5.39885e-21)
(3.6 -5.58441e-07 -1.07988e-20)
(3.6 -4.85929e-07 -4.81115e-27)
(3.6 -4.44049e-07 1.61997e-20)
(3.6 -4.47837e-07 0)
(3.60001 -3.77803e-07 -5.40047e-21)
(3.59995 -6.87586e-07 8.10099e-21)
(3.60003 -1.44119e-06 -2.70067e-21)
(3.34966 -0.318273 -1.16923e-19)
(3.41194 -0.176756 1.13889e-19)
(3.44665 -0.109835 -4.105e-21)
(3.48027 -0.0701945 1.54096e-19)
(3.5063 -0.0466286 -3.1697e-19)
(3.52615 -0.0319895 1.5759e-19)
(3.54128 -0.0225378 0)
(3.55291 -0.0162165 0)
(3.56194 -0.0118554 5.57026e-21)
(3.56898 -0.00872174 -1.73862e-19)
(3.57453 -0.00637783 1.85048e-19)
(3.57902 -0.00474248 -1.80952e-19)
(3.58268 -0.00365935 1.80878e-19)
(3.58566 -0.00293609 -5.6784e-21)
(3.58815 -0.00250709 0)
(3.59019 -0.00221304 5.66648e-21)
(3.59183 -0.00192135 5.65598e-21)
(3.59317 -0.00162527 0)
(3.59428 -0.00137371 5.63313e-21)
(3.5952 -0.0011639 0)
(3.59597 -0.000987896 0)
(3.59662 -0.000830562 5.59939e-21)
(3.59715 -0.000700556 0)
(3.5976 -0.000593513 1.11555e-20)
(3.59798 -0.000504453 1.78109e-19)
(3.59829 -0.000429795 -3.50329e-19)
(3.59856 -0.000366913 1.66957e-22)
(3.59878 -0.000313799 1.71994e-19)
(3.59897 -0.000268861 8.85917e-20)
(3.59913 -0.000230784 -8.30226e-20)
(3.59927 -0.000198465 0)
(3.59938 -0.000171008 -8.83228e-20)
(3.59948 -0.000147652 -5.47471e-21)
(3.59956 -0.000127762 8.8209e-20)
(3.59963 -0.000110772 5.5075e-21)
(3.59969 -9.62387e-05 0)
(3.59973 -8.37818e-05 5.49934e-21)
(3.59978 -7.30807e-05 -8.79204e-20)
(3.59981 -6.38398e-05 1.9271e-23)
(3.59984 -5.58446e-05 1.68118e-23)
(3.59986 -4.89088e-05 8.77774e-20)
(3.59989 -4.28745e-05 0)
(3.5999 -3.76043e-05 8.7668e-20)
(3.59992 -3.29959e-05 -8.76325e-20)
(3.59993 -2.90098e-05 0)
(3.59994 -2.55666e-05 -8.75369e-20)
(3.59995 -2.26434e-05 1.74997e-19)
(3.59996 -2.01718e-05 -8.74602e-20)
(3.59996 -1.81028e-05 -5.46364e-21)
(3.59997 -1.63659e-05 0)
(3.59997 -1.48347e-05 0)
(3.59998 -1.34719e-05 0)
(3.59998 -1.21995e-05 8.72624e-20)
(3.59998 -1.10262e-05 -8.72272e-20)
(3.59999 -9.91471e-06 0)
(3.59999 -8.88216e-06 -4.35759e-20)
(3.59999 -7.93069e-06 5.4454e-21)
(3.59999 -7.06973e-06 5.05086e-25)
(3.59999 -6.29914e-06 4.35222e-20)
(3.59999 -5.62055e-06 0)
(3.59999 -5.02282e-06 0)
(3.6 -4.49875e-06 0)
(3.6 -4.00571e-06 0)
(3.6 -3.5474e-06 4.34333e-20)
(3.6 -3.10691e-06 -4.88428e-20)
(3.6 -2.69544e-06 0)
(3.6 -2.307e-06 0)
(3.6 -1.9524e-06 0)
(3.6 -1.63572e-06 -2.16729e-20)
(3.6 -1.36015e-06 2.16643e-20)
(3.6 -1.1261e-06 0)
(3.6 -9.32121e-07 0)
(3.6 -7.77297e-07 5.40956e-21)
(3.6 -6.60327e-07 0)
(3.6 -5.76175e-07 0)
(3.6 -5.26869e-07 0)
(3.6 -5.30351e-07 5.39989e-21)
(3.60001 -4.50486e-07 -5.39773e-21)
(3.59995 -7.78603e-07 0)
(3.60003 -1.61152e-06 0)
(3.39683 -0.349099 3.30902e-21)
(3.43381 -0.204932 -3.68422e-21)
(3.45684 -0.129726 4.29219e-21)
(3.48489 -0.0837586 -1.55255e-19)
(3.50839 -0.0558859 1.49981e-19)
(3.52703 -0.0384328 5.35832e-21)
(3.54159 -0.0271418 1.77535e-19)
(3.55295 -0.0196052 -1.7735e-19)
(3.56185 -0.0144322 0)
(3.56887 -0.0107732 1.79345e-19)
(3.57443 -0.00806149 -1.84881e-19)
(3.57887 -0.006 5.80414e-21)
(3.58249 -0.00453297 0)
(3.58549 -0.00347379 1.87432e-19)
(3.58797 -0.00279073 -3.68805e-19)
(3.59001 -0.00234587 1.38795e-23)
(3.59172 -0.00202483 1.9284e-19)
(3.5931 -0.00179447 0)
(3.59422 -0.00156502 -1.86074e-19)
(3.59515 -0.00134725 1.85883e-19)
(3.59593 -0.00115528 0)
(3.59659 -0.000970742 5.77591e-21)
(3.59713 -0.000817563 5.76329e-21)
(3.59758 -0.000692559 -5.75447e-21)
(3.59796 -0.000588885 -5.73923e-21)
(3.59828 -0.000501951 -1.88978e-19)
(3.59855 -0.000428667 3.71679e-19)
(3.59878 -0.000366711 -1.82715e-19)
(3.59897 -0.000314258 5.69673e-21)
(3.59913 -0.000269781 -5.68722e-21)
(3.59926 -0.000232017 0)
(3.59938 -0.000199918 0)
(3.59948 -0.00017261 0)
(3.59956 -0.00014934 0)
(3.59963 -0.000129461 9.03072e-20)
(3.59968 -0.000112452 -2.83998e-23)
(3.59973 -9.78772e-05 -9.00964e-20)
(3.59977 -8.53517e-05 -8.99585e-20)
(3.59981 -7.45412e-05 1.92222e-23)
(3.59984 -6.51888e-05 8.97579e-20)
(3.59986 -5.70824e-05 0)
(3.59989 -5.0032e-05 0)
(3.5999 -4.38848e-05 0)
(3.59992 -3.85176e-05 8.93328e-20)
(3.59993 -3.38778e-05 -9.48207e-20)
(3.59994 -2.98706e-05 9.47098e-20)
(3.59995 -2.64643e-05 -1.78092e-19)
(3.59996 -2.35711e-05 8.33946e-20)
(3.59996 -2.11409e-05 9.44092e-20)
(3.59997 -1.90747e-05 -3.79721e-24)
(3.59997 -1.72637e-05 -8.86748e-20)
(3.59998 -1.56468e-05 -8.85804e-20)
(3.59998 -1.41509e-05 8.84924e-20)
(3.59998 -1.27719e-05 -5.52511e-21)
(3.59999 -1.14779e-05 -5.5195e-21)
(3.59999 -1.02789e-05 -8.82212e-20)
(3.59999 -9.17913e-06 7.71172e-20)
(3.59999 -8.18296e-06 -4.95249e-20)
(3.59999 -7.29261e-06 4.94759e-20)
(3.59999 -6.50318e-06 3.84425e-20)
(3.6 -5.80676e-06 -4.93773e-20)
(3.6 -5.18875e-06 0)
(3.6 -4.6134e-06 0)
(3.6 -4.07654e-06 0)
(3.6 -3.56629e-06 -3.82526e-20)
(3.6 -3.09023e-06 3.82151e-20)
(3.6 -2.64527e-06 -5.45393e-21)
(3.6 -2.23963e-06 4.35884e-20)
(3.6 -1.87934e-06 -6.53186e-20)
(3.6 -1.56531e-06 1.63137e-20)
(3.6 -1.29958e-06 0)
(3.6 -1.07777e-06 1.62818e-20)
(3.6 -9.00693e-07 -5.42197e-20)
(3.6 -7.65038e-07 4.87502e-20)
(3.6 -6.6853e-07 -2.16456e-20)
(3.6 -6.10357e-07 0)
(3.6 -6.12062e-07 1.07997e-20)
(3.60001 -5.25212e-07 -1.07893e-20)
(3.59995 -8.52921e-07 -5.38902e-21)
(3.60003 -1.73438e-06 0)
(3.44795 -0.364407 0)
(3.45762 -0.225485 -1.23721e-19)
(3.46904 -0.142189 1.23489e-19)
(3.49066 -0.0905738 1.57368e-19)
(3.51108 -0.0591737 -1.57084e-19)
(3.52822 -0.0397227 -1.77141e-19)
(3.54204 -0.0273599 3.59908e-19)
(3.55304 -0.0192868 -1.82757e-19)
(3.56178 -0.0138795 0)
(3.56873 -0.0101648 -1.86107e-19)
(3.57428 -0.00753027 3.85155e-19)
(3.57875 -0.00558413 -1.99116e-19)
(3.58238 -0.0040658 0)
(3.58534 -0.00293778 1.94873e-19)
(3.58781 -0.00214135 -3.95486e-19)
(3.58988 -0.00164197 1.94514e-19)
(3.59156 -0.00136019 -6.08301e-21)
(3.59296 -0.0011988 1.93922e-19)
(3.59413 -0.00104514 -1.93576e-19)
(3.59509 -0.00090433 0)
(3.59589 -0.00078346 0)
(3.59655 -0.000744484 -6.00054e-21)
(3.5971 -0.000696762 -1.97267e-19)
(3.59756 -0.000629162 3.817e-19)
(3.59794 -0.000557173 -1.84468e-19)
(3.59827 -0.000488134 -1.89738e-19)
(3.59854 -0.000425047 1.83487e-19)
(3.59877 -0.00036883 0)
(3.59896 -0.000319478 1.8244e-19)
(3.59912 -0.000276518 -1.82125e-19)
(3.59926 -0.000239328 0)
(3.59938 -0.000207242 1.8704e-19)
(3.59947 -0.000179628 -1.86715e-19)
(3.59956 -0.000155871 0)
(3.59962 -0.000135427 0)
(3.59968 -0.000117824 0)
(3.59973 -0.000102666 -5.78528e-21)
(3.59977 -8.95799e-05 0)
(3.59981 -7.82526e-05 9.21929e-20)
(3.59984 -6.84284e-05 -9.20345e-20)
(3.59986 -5.99009e-05 -2.87038e-21)
(3.59989 -5.24751e-05 0)
(3.5999 -4.59995e-05 -9.43667e-20)
(3.59992 -4.03459e-05 1.82692e-19)
(3.59993 -3.54504e-05 -8.54866e-20)
(3.59994 -3.12182e-05 -8.5329e-21)
(3.59995 -2.76115e-05 0)
(3.59996 -2.45367e-05 9.35287e-20)
(3.59996 -2.19434e-05 -9.0541e-20)
(3.59997 -1.9715e-05 0)
(3.59997 -1.77929e-05 8.74043e-20)
(3.59998 -1.60852e-05 -9.0072e-20)
(3.59998 -1.45155e-05 -9.2725e-20)
(3.59998 -1.30703e-05 9.53744e-20)
(3.59999 -1.17238e-05 2.80026e-21)
(3.59999 -1.04812e-05 8.94582e-20)
(3.59999 -9.34684e-06 -8.37271e-20)
(3.59999 -8.32055e-06 2.78612e-21)
(3.59999 -7.40554e-06 -9.45709e-20)
(3.59999 -6.59318e-06 9.44137e-20)
(3.6 -5.87737e-06 5.54443e-21)
(3.6 -5.24046e-06 4.42818e-20)
(3.6 -4.65377e-06 -2.7633e-21)
(3.6 -4.10656e-06 -4.41354e-20)
(3.6 -3.59065e-06 -2.7539e-21)
(3.6 -3.11035e-06 5.49869e-21)
(3.6 -2.66509e-06 -4.11724e-20)
(3.6 -2.26129e-06 4.38452e-20)
(3.6 -1.90439e-06 0)
(3.6 -1.59398e-06 2.73134e-21)
(3.6 -1.33273e-06 -2.18151e-20)
(3.6 -1.1149e-06 2.72246e-21)
(3.6 -9.42154e-07 2.71802e-20)
(3.6 -8.11032e-07 -5.4272e-21)
(3.6 -7.21733e-07 -2.7092e-21)
(3.6 -6.70516e-07 1.08182e-20)
(3.6 -6.8115e-07 -2.42994e-20)
(3.60001 -6.07443e-07 1.07823e-20)
(3.59995 -8.7661e-07 2.69105e-21)
(3.60003 -1.79903e-06 0)
(3.50488 -0.401623 -1.04901e-19)
(3.48317 -0.292146 1.04617e-19)
(3.48319 -0.199903 0)
(3.49726 -0.137439 0)
(3.51395 -0.0958902 -1.6989e-19)
(3.52928 -0.0682335 1.69415e-19)
(3.54224 -0.049539 1.87463e-19)
(3.55285 -0.0366534 -1.86942e-19)
(3.56143 -0.0275916 0)
(3.56834 -0.0210919 0)
(3.57391 -0.016328 -2.01059e-19)
(3.57842 -0.0127601 2.00507e-19)
(3.58209 -0.0100324 0)
(3.58511 -0.00789182 0)
(3.58758 -0.00619121 0)
(3.58964 -0.00499178 0)
(3.59136 -0.00404499 0)
(3.5928 -0.00328442 0)
(3.59398 -0.0026981 -2.01931e-19)
(3.59497 -0.00223624 2.01389e-19)
(3.59577 -0.00187312 0)