/*--------------------------------*- C++ -*----------------------------------*\
  =========                 |
  \\      /  F ield         | OpenFOAM: The Open Source CFD Toolbox
   \\    /   O peration     | Website:  https://openfoam.org
    \\  /    A nd           | Version:  10
     \\/     M anipulation  |
\*---------------------------------------------------------------------------*/
FoamFile
{
    format      ascii;
    class       volScalarField;
    location    "10";
    object      nut;
}
// * * * * * * * * * * * * * * * * * * * * * * * * * * * * * * * * * * * * * //

dimensions      [0 2 -1 0 0 0 0];

internalField   nonuniform List<scalar> 
38016
(
3.30021e-06
3.30036e-06
3.30065e-06
3.30076e-06
3.30089e-06
3.30105e-06
3.30125e-06
3.3015e-06
3.30182e-06
3.30223e-06
3.30272e-06
3.30331e-06
3.30401e-06
3.30483e-06
3.30576e-06
3.30696e-06
3.30851e-06
3.31048e-06
3.31297e-06
3.31613e-06
3.32022e-06
3.32558e-06
3.33292e-06
3.34329e-06
3.35859e-06
3.37988e-06
3.40867e-06
3.44722e-06
3.49692e-06
3.55807e-06
3.63094e-06
3.71642e-06
3.81515e-06
3.92751e-06
4.05579e-06
4.1997e-06
4.36204e-06
4.55487e-06
4.80636e-06
5.17581e-06
5.9429e-06
8.87502e-06
2.66006e-05
0.000114742
0.000282697
0.000483424
0.000655308
0.000788361
3.3002e-06
3.30036e-06
3.30065e-06
3.30076e-06
3.30089e-06
3.30105e-06
3.30124e-06
3.3015e-06
3.30182e-06
3.30223e-06
3.30272e-06
3.30331e-06
3.30401e-06
3.30482e-06
3.30576e-06
3.30696e-06
3.30851e-06
3.31048e-06
3.31296e-06
3.31612e-06
3.3202e-06
3.32554e-06
3.33285e-06
3.34316e-06
3.35834e-06
3.37945e-06
3.40798e-06
3.4462e-06
3.4955e-06
3.55617e-06
3.62848e-06
3.71331e-06
3.81129e-06
3.92276e-06
4.05001e-06
4.19272e-06
4.35359e-06
4.54445e-06
4.79292e-06
5.15515e-06
5.88959e-06
8.62405e-06
2.49762e-05
0.000109333
0.000275913
0.000476895
0.000649706
0.000783685
3.3002e-06
3.30036e-06
3.30065e-06
3.30076e-06
3.30089e-06
3.30105e-06
3.30124e-06
3.3015e-06
3.30182e-06
3.30223e-06
3.30272e-06
3.30331e-06
3.30401e-06
3.30482e-06
3.30575e-06
3.30696e-06
3.30851e-06
3.31048e-06
3.31296e-06
3.31611e-06
3.32018e-06
3.32551e-06
3.33279e-06
3.34305e-06
3.35814e-06
3.3791e-06
3.40739e-06
3.44531e-06
3.49422e-06
3.5544e-06
3.62613e-06
3.71028e-06
3.80745e-06
3.91797e-06
4.04411e-06
4.18551e-06
4.34479e-06
4.53353e-06
4.77881e-06
5.13364e-06
5.83541e-06
8.37513e-06
2.33771e-05
0.000103719
0.000268818
0.000470099
0.000643901
0.000778849
3.3002e-06
3.30035e-06
3.30065e-06
3.30076e-06
3.30089e-06
3.30104e-06
3.30124e-06
3.3015e-06
3.30182e-06
3.30223e-06
3.30272e-06
3.30331e-06
3.30401e-06
3.30482e-06
3.30575e-06
3.30696e-06
3.30851e-06
3.31047e-06
3.31295e-06
3.3161e-06
3.32016e-06
3.32547e-06
3.33273e-06
3.34294e-06
3.35794e-06
3.37873e-06
3.40679e-06
3.44439e-06
3.49289e-06
3.55257e-06
3.6237e-06
3.70714e-06
3.80346e-06
3.91297e-06
4.03794e-06
4.17797e-06
4.33554e-06
4.52197e-06
4.76368e-06
5.1101e-06
5.7744e-06
8.09186e-06
2.15551e-05
9.6921e-05
0.000260175
0.000461945
0.000637096
0.000773328
3.3002e-06
3.30035e-06
3.30065e-06
3.30076e-06
3.30089e-06
3.30104e-06
3.30124e-06
3.3015e-06
3.30182e-06
3.30223e-06
3.30272e-06
3.30331e-06
3.30401e-06
3.30482e-06
3.30575e-06
3.30696e-06
3.30851e-06
3.31047e-06
3.31294e-06
3.31608e-06
3.32014e-06
3.32543e-06
3.33266e-06
3.34282e-06
3.35773e-06
3.37835e-06
3.40617e-06
3.44343e-06
3.4915e-06
3.55066e-06
3.62116e-06
3.70384e-06
3.79927e-06
3.90773e-06
4.03146e-06
4.17003e-06
4.32578e-06
4.50969e-06
4.74748e-06
5.08475e-06
5.70854e-06
7.78764e-06
1.9605e-05
8.90803e-05
0.000250056
0.000452511
0.000629358
0.000767171
3.3002e-06
3.30035e-06
3.30065e-06
3.30076e-06
3.30089e-06
3.30104e-06
3.30124e-06
3.3015e-06
3.30182e-06
3.30222e-06
3.30272e-06
3.30331e-06
3.30401e-06
3.30482e-06
3.30575e-06
3.30695e-06
3.30851e-06
3.31047e-06
3.31294e-06
3.31607e-06
3.32011e-06
3.32539e-06
3.33259e-06
3.3427e-06
3.3575e-06
3.37795e-06
3.40551e-06
3.44242e-06
3.49004e-06
3.54865e-06
3.61848e-06
3.70037e-06
3.79486e-06
3.90219e-06
4.02463e-06
4.16166e-06
4.31548e-06
4.49671e-06
4.73036e-06
5.05824e-06
5.64152e-06
7.48469e-06
1.76806e-05
8.06533e-05
0.000238888
0.000442198
0.000621009
0.000760625
3.3002e-06
3.30035e-06
3.30065e-06
3.30076e-06
3.30089e-06
3.30104e-06
3.30124e-06
3.3015e-06
3.30182e-06
3.30222e-06
3.30272e-06
3.30331e-06
3.30401e-06
3.30482e-06
3.30575e-06
3.30695e-06
3.3085e-06
3.31046e-06
3.31293e-06
3.31606e-06
3.32009e-06
3.32535e-06
3.33251e-06
3.34256e-06
3.35726e-06
3.37753e-06
3.4048e-06
3.44135e-06
3.4885e-06
3.54652e-06
3.61565e-06
3.6967e-06
3.7902e-06
3.89636e-06
4.01743e-06
4.15286e-06
4.3047e-06
4.48318e-06
4.71263e-06
5.03147e-06
5.57729e-06
7.20519e-06
1.59334e-05
7.23031e-05
0.000227382
0.000431674
0.000612606
0.000754133
3.3002e-06
3.30035e-06
3.30065e-06
3.30075e-06
3.30089e-06
3.30104e-06
3.30124e-06
3.3015e-06
3.30182e-06
3.30222e-06
3.30272e-06
3.30331e-06
3.30401e-06
3.30482e-06
3.30575e-06
3.30695e-06
3.3085e-06
3.31046e-06
3.31292e-06
3.31604e-06
3.32006e-06
3.3253e-06
3.33243e-06
3.34242e-06
3.35701e-06
3.37707e-06
3.40406e-06
3.44021e-06
3.48685e-06
3.54426e-06
3.61264e-06
3.69281e-06
3.78527e-06
3.8902e-06
4.00986e-06
4.14365e-06
4.29346e-06
4.46914e-06
4.69443e-06
5.00476e-06
5.5169e-06
6.95405e-06
1.43947e-05
6.4307e-05
0.000215779
0.000421166
0.00060433
0.000747838
3.3002e-06
3.30035e-06
3.30065e-06
3.30075e-06
3.30089e-06
3.30104e-06
3.30124e-06
3.3015e-06
3.30182e-06
3.30222e-06
3.30271e-06
3.30331e-06
3.304e-06
3.30482e-06
3.30575e-06
3.30695e-06
3.3085e-06
3.31045e-06
3.31291e-06
3.31602e-06
3.32003e-06
3.32525e-06
3.33234e-06
3.34227e-06
3.35674e-06
3.37659e-06
3.40326e-06
3.43899e-06
3.48511e-06
3.54186e-06
3.60946e-06
3.6887e-06
3.78008e-06
3.88373e-06
4.00193e-06
4.13404e-06
4.2818e-06
4.45468e-06
4.67588e-06
4.97829e-06
5.46075e-06
6.73218e-06
1.30665e-05
5.68554e-05
0.000204233
0.000410811
0.000596288
0.000741816
3.3002e-06
3.30035e-06
3.30065e-06
3.30075e-06
3.30089e-06
3.30104e-06
3.30124e-06
3.30149e-06
3.30182e-06
3.30222e-06
3.30271e-06
3.3033e-06
3.304e-06
3.30482e-06
3.30575e-06
3.30695e-06
3.3085e-06
3.31045e-06
3.3129e-06
3.316e-06
3.32e-06
3.32519e-06
3.33225e-06
3.3421e-06
3.35645e-06
3.37607e-06
3.40242e-06
3.43771e-06
3.48326e-06
3.53933e-06
3.6061e-06
3.68437e-06
3.77462e-06
3.87695e-06
3.99366e-06
4.12407e-06
4.26978e-06
4.43989e-06
4.65711e-06
4.95224e-06
5.40894e-06
6.5386e-06
1.19368e-05
5.0077e-05
0.000192862
0.0004007
0.000588541
0.000736106
3.3002e-06
3.30035e-06
3.30064e-06
3.30075e-06
3.30089e-06
3.30104e-06
3.30124e-06
3.30149e-06
3.30182e-06
3.30222e-06
3.30271e-06
3.3033e-06
3.304e-06
3.30481e-06
3.30575e-06
3.30695e-06
3.30849e-06
3.31044e-06
3.31289e-06
3.31598e-06
3.31996e-06
3.32514e-06
3.33215e-06
3.34193e-06
3.35614e-06
3.37553e-06
3.40153e-06
3.43635e-06
3.4813e-06
3.53665e-06
3.60256e-06
3.67981e-06
3.7689e-06
3.86988e-06
3.98508e-06
4.11378e-06
4.25746e-06
4.42486e-06
4.63826e-06
4.92676e-06
5.36136e-06
6.37135e-06
1.09869e-05
4.40452e-05
0.000181762
0.000390897
0.000581126
0.000730726
3.3002e-06
3.30035e-06
3.30064e-06
3.30075e-06
3.30088e-06
3.30104e-06
3.30124e-06
3.30149e-06
3.30182e-06
3.30222e-06
3.30271e-06
3.3033e-06
3.304e-06
3.30481e-06
3.30575e-06
3.30695e-06
3.30849e-06
3.31043e-06
3.31287e-06
3.31596e-06
3.31992e-06
3.32507e-06
3.33204e-06
3.34174e-06
3.35581e-06
3.37495e-06
3.40058e-06
3.43491e-06
3.47924e-06
3.53383e-06
3.59884e-06
3.67505e-06
3.76293e-06
3.86254e-06
3.97621e-06
4.10322e-06
4.24491e-06
4.40968e-06
4.61945e-06
4.90195e-06
5.3178e-06
6.22779e-06
1.01944e-05
3.87762e-05
0.000171006
0.000381436
0.000574057
0.000725678
3.3002e-06
3.30035e-06
3.30064e-06
3.30075e-06
3.30088e-06
3.30104e-06
3.30124e-06
3.30149e-06
3.30182e-06
3.30222e-06
3.30271e-06
3.3033e-06
3.304e-06
3.30481e-06
3.30575e-06
3.30695e-06
3.30849e-06
3.31043e-06
3.31286e-06
3.31594e-06
3.31988e-06
3.325e-06
3.33192e-06
3.34154e-06
3.35546e-06
3.37433e-06
3.39958e-06
3.43339e-06
3.47707e-06
3.53087e-06
3.59495e-06
3.67007e-06
3.75673e-06
3.85494e-06
3.96709e-06
4.09243e-06
4.2322e-06
4.39445e-06
4.60081e-06
4.87792e-06
5.27796e-06
6.10499e-06
9.53626e-06
3.42408e-05
0.000160645
0.000372327
0.000567328
0.00072095
3.3002e-06
3.30035e-06
3.30064e-06
3.30075e-06
3.30088e-06
3.30104e-06
3.30124e-06
3.30149e-06
3.30181e-06
3.30222e-06
3.30271e-06
3.3033e-06
3.304e-06
3.30481e-06
3.30574e-06
3.30695e-06
3.30848e-06
3.31042e-06
3.31285e-06
3.31591e-06
3.31984e-06
3.32493e-06
3.3318e-06
3.34133e-06
3.35509e-06
3.37368e-06
3.39852e-06
3.43179e-06
3.47479e-06
3.52777e-06
3.59088e-06
3.66489e-06
3.75031e-06
3.84712e-06
3.95775e-06
4.08148e-06
4.21939e-06
4.37927e-06
4.58244e-06
4.85473e-06
5.24152e-06
6.00008e-06
8.9908e-06
3.03792e-05
0.000150712
0.000363561
0.000560922
0.000716525
3.30019e-06
3.30035e-06
3.30064e-06
3.30075e-06
3.30088e-06
3.30104e-06
3.30124e-06
3.30149e-06
3.30181e-06
3.30222e-06
3.30271e-06
3.3033e-06
3.304e-06
3.30481e-06
3.30574e-06
3.30695e-06
3.30848e-06
3.31041e-06
3.31283e-06
3.31589e-06
3.3198e-06
3.32486e-06
3.33167e-06
3.3411e-06
3.35469e-06
3.373e-06
3.39742e-06
3.43011e-06
3.4724e-06
3.52453e-06
3.58664e-06
3.65953e-06
3.74369e-06
3.8391e-06
3.94825e-06
4.07041e-06
4.20657e-06
4.36422e-06
4.56444e-06
4.83246e-06
5.20817e-06
5.91041e-06
8.53888e-06
2.7117e-05
0.000141233
0.00035512
0.000554816
0.000712383
3.30019e-06
3.30035e-06
3.30064e-06
3.30075e-06
3.30088e-06
3.30104e-06
3.30123e-06
3.30149e-06
3.30181e-06
3.30221e-06
3.30271e-06
3.3033e-06
3.304e-06
3.30481e-06
3.30574e-06
3.30694e-06
3.30848e-06
3.3104e-06
3.31282e-06
3.31586e-06
3.31975e-06
3.32477e-06
3.33153e-06
3.34087e-06
3.35428e-06
3.37228e-06
3.39625e-06
3.42836e-06
3.46991e-06
3.52115e-06
3.58225e-06
3.65399e-06
3.73689e-06
3.83092e-06
3.93862e-06
4.05928e-06
4.19381e-06
4.34938e-06
4.54692e-06
4.81116e-06
5.17765e-06
5.8337e-06
8.16447e-06
2.43786e-05
0.00013224
0.000346991
0.000548993
0.000708511
3.30019e-06
3.30035e-06
3.30064e-06
3.30075e-06
3.30088e-06
3.30104e-06
3.30123e-06
3.30149e-06
3.30181e-06
3.30221e-06
3.30271e-06
3.3033e-06
3.304e-06
3.30481e-06
3.30574e-06
3.30694e-06
3.30847e-06
3.31039e-06
3.3128e-06
3.31583e-06
3.3197e-06
3.32469e-06
3.33138e-06
3.34062e-06
3.35385e-06
3.37152e-06
3.39503e-06
3.42652e-06
3.46731e-06
3.51765e-06
3.57772e-06
3.6483e-06
3.72994e-06
3.82261e-06
3.92892e-06
4.04815e-06
4.18116e-06
4.33484e-06
4.52994e-06
4.79087e-06
5.14971e-06
5.76785e-06
7.8531e-06
2.20813e-05
0.000123727
0.000339129
0.000543412
0.000704877
3.30019e-06
3.30035e-06
3.30064e-06
3.30075e-06
3.30088e-06
3.30103e-06
3.30123e-06
3.30149e-06
3.30181e-06
3.30221e-06
3.3027e-06
3.3033e-06
3.30399e-06
3.30481e-06
3.30574e-06
3.30694e-06
3.30847e-06
3.31038e-06
3.31278e-06
3.3158e-06
3.31964e-06
3.3246e-06
3.33123e-06
3.34035e-06
3.35339e-06
3.37073e-06
3.39376e-06
3.42461e-06
3.46461e-06
3.51403e-06
3.57304e-06
3.64246e-06
3.72286e-06
3.81421e-06
3.91918e-06
4.03709e-06
4.16869e-06
4.32066e-06
4.51359e-06
4.77164e-06
5.12414e-06
5.71116e-06
7.59334e-06
2.01545e-05
0.000115698
0.000331501
0.000538042
0.000701461
3.30019e-06
3.30035e-06
3.30064e-06
3.30075e-06
3.30088e-06
3.30103e-06
3.30123e-06
3.30149e-06
3.30181e-06
3.30221e-06
3.3027e-06
3.30329e-06
3.30399e-06
3.30481e-06
3.30574e-06
3.30694e-06
3.30846e-06
3.31037e-06
3.31276e-06
3.31576e-06
3.31958e-06
3.3245e-06
3.33107e-06
3.34008e-06
3.35291e-06
3.3699e-06
3.39243e-06
3.42263e-06
3.46182e-06
3.5103e-06
3.56825e-06
3.63651e-06
3.7157e-06
3.80577e-06
3.90947e-06
4.02614e-06
4.15648e-06
4.30691e-06
4.49791e-06
4.7535e-06
5.10078e-06
5.66225e-06
7.37592e-06
1.85365e-05
0.00010815
0.000324071
0.00053285
0.000698244
3.30019e-06
3.30035e-06
3.30064e-06
3.30075e-06
3.30088e-06
3.30103e-06
3.30123e-06
3.30149e-06
3.30181e-06
3.30221e-06
3.3027e-06
3.30329e-06
3.30399e-06
3.30481e-06
3.30574e-06
3.30694e-06
3.30846e-06
3.31036e-06
3.31274e-06
3.31573e-06
3.31952e-06
3.3244e-06
3.3309e-06
3.33979e-06
3.35241e-06
3.36904e-06
3.39105e-06
3.42058e-06
3.45895e-06
3.50648e-06
3.56336e-06
3.63048e-06
3.70848e-06
3.79732e-06
3.89982e-06
4.01536e-06
4.14457e-06
4.29364e-06
4.48297e-06
4.73648e-06
5.07952e-06
5.62e-06
7.19331e-06
1.71744e-05
0.000101079
0.000316805
0.000527807
0.000695209
3.30019e-06
3.30035e-06
3.30064e-06
3.30075e-06
3.30088e-06
3.30103e-06
3.30123e-06
3.30148e-06
3.30181e-06
3.30221e-06
3.3027e-06
3.30329e-06
3.30399e-06
3.30481e-06
3.30574e-06
3.30694e-06
3.30845e-06
3.31035e-06
3.31272e-06
3.31569e-06
3.31946e-06
3.3243e-06
3.33072e-06
3.33949e-06
3.35189e-06
3.36815e-06
3.38963e-06
3.41847e-06
3.456e-06
3.50257e-06
3.55839e-06
3.62438e-06
3.70123e-06
3.7889e-06
3.8903e-06
4.0048e-06
4.13301e-06
4.28091e-06
4.46881e-06
4.72061e-06
5.06025e-06
5.58352e-06
7.03947e-06
1.60243e-05
9.44726e-05
0.000309671
0.000522881
0.000692342
3.30018e-06
3.30035e-06
3.30064e-06
3.30075e-06
3.30088e-06
3.30103e-06
3.30123e-06
3.30148e-06
3.30181e-06
3.30221e-06
3.3027e-06
3.30329e-06
3.30399e-06
3.3048e-06
3.30574e-06
3.30694e-06
3.30845e-06
3.31034e-06
3.3127e-06
3.31565e-06
3.3194e-06
3.32419e-06
3.33054e-06
3.33917e-06
3.35135e-06
3.36722e-06
3.38816e-06
3.4163e-06
3.45299e-06
3.49859e-06
3.55337e-06
3.61826e-06
3.694e-06
3.78057e-06
3.88094e-06
3.99452e-06
4.12187e-06
4.26877e-06
4.45549e-06
4.70591e-06
5.04291e-06
5.55208e-06
6.90954e-06
1.50495e-05
8.83175e-05
0.000302637
0.000518048
0.000689629
3.30018e-06
3.30035e-06
3.30063e-06
3.30074e-06
3.30088e-06
3.30103e-06
3.30123e-06
3.30148e-06
3.3018e-06
3.30221e-06
3.3027e-06
3.30329e-06
3.30399e-06
3.3048e-06
3.30575e-06
3.30693e-06
3.30844e-06
3.31033e-06
3.31268e-06
3.31561e-06
3.31933e-06
3.32407e-06
3.33035e-06
3.33885e-06
3.35079e-06
3.36627e-06
3.38665e-06
3.41408e-06
3.44992e-06
3.49457e-06
3.54831e-06
3.61213e-06
3.68682e-06
3.77236e-06
3.8718e-06
3.98457e-06
4.11118e-06
4.25726e-06
4.44304e-06
4.69243e-06
5.02744e-06
5.52513e-06
6.79959e-06
1.422e-05
8.25959e-05
0.000295692
0.000513289
0.000687058
3.30018e-06
3.30035e-06
3.30063e-06
3.30074e-06
3.30088e-06
3.30103e-06
3.30123e-06
3.30148e-06
3.3018e-06
3.3022e-06
3.3027e-06
3.30329e-06
3.30399e-06
3.3048e-06
3.30575e-06
3.30693e-06
3.30844e-06
3.31032e-06
3.31266e-06
3.31557e-06
3.31926e-06
3.32396e-06
3.33015e-06
3.33852e-06
3.35021e-06
3.36529e-06
3.38511e-06
3.41182e-06
3.44681e-06
3.49051e-06
3.54325e-06
3.60604e-06
3.67974e-06
3.76433e-06
3.86292e-06
3.97498e-06
4.10099e-06
4.24643e-06
4.43149e-06
4.68018e-06
5.0138e-06
5.50221e-06
6.70646e-06
1.35111e-05
7.73054e-05
0.000288916
0.000508626
0.00068462
3.30018e-06
3.30034e-06
3.30063e-06
3.30074e-06
3.30087e-06
3.30103e-06
3.30123e-06
3.30148e-06
3.3018e-06
3.3022e-06
3.30269e-06
3.30329e-06
3.30399e-06
3.3048e-06
3.30575e-06
3.30693e-06
3.30843e-06
3.3103e-06
3.31263e-06
3.31553e-06
3.31919e-06
3.32384e-06
3.32995e-06
3.33818e-06
3.34963e-06
3.36429e-06
3.38354e-06
3.40954e-06
3.44368e-06
3.48645e-06
3.53821e-06
3.60002e-06
3.67279e-06
3.7565e-06
3.85434e-06
3.9658e-06
4.09134e-06
4.23631e-06
4.42089e-06
4.66918e-06
5.00198e-06
5.48297e-06
6.62761e-06
1.28987e-05
7.23456e-05
0.000281974
0.000504386
0.000682301
3.30018e-06
3.30034e-06
3.30063e-06
3.30074e-06
3.30087e-06
3.30103e-06
3.30122e-06
3.30148e-06
3.3018e-06
3.3022e-06
3.30269e-06
3.30328e-06
3.30398e-06
3.3048e-06
3.30575e-06
3.30693e-06
3.30843e-06
3.31029e-06
3.31261e-06
3.31549e-06
3.31912e-06
3.32372e-06
3.32975e-06
3.33784e-06
3.34904e-06
3.36328e-06
3.38196e-06
3.40724e-06
3.44055e-06
3.48241e-06
3.53322e-06
3.59411e-06
3.66602e-06
3.74893e-06
3.84611e-06
3.95708e-06
4.08228e-06
4.22694e-06
4.41127e-06
4.65947e-06
4.99195e-06
5.46713e-06
6.56069e-06
1.23612e-05
6.77178e-05
0.000274871
0.000500208
0.000680076
3.30017e-06
3.30034e-06
3.30063e-06
3.30074e-06
3.30087e-06
3.30103e-06
3.30122e-06
3.30148e-06
3.3018e-06
3.3022e-06
3.30269e-06
3.30328e-06
3.30398e-06
3.3048e-06
3.30575e-06
3.30693e-06
3.30842e-06
3.31028e-06
3.31258e-06
3.31545e-06
3.31904e-06
3.3236e-06
3.32954e-06
3.3375e-06
3.34844e-06
3.36227e-06
3.38037e-06
3.40493e-06
3.43743e-06
3.47841e-06
3.52832e-06
3.58834e-06
3.65946e-06
3.74165e-06
3.83827e-06
3.94884e-06
4.07382e-06
4.21835e-06
4.40265e-06
4.65106e-06
4.9837e-06
5.45466e-06
6.49881e-06
1.18851e-05
6.3396e-05
0.000267604
0.000495977
0.000677915
3.30017e-06
3.30034e-06
3.30063e-06
3.30074e-06
3.30087e-06
3.30103e-06
3.30122e-06
3.30148e-06
3.3018e-06
3.3022e-06
3.30269e-06
3.30328e-06
3.30398e-06
3.3048e-06
3.30575e-06
3.30693e-06
3.30842e-06
3.31027e-06
3.31256e-06
3.3154e-06
3.31897e-06
3.32347e-06
3.32934e-06
3.33715e-06
3.34784e-06
3.36125e-06
3.37878e-06
3.40265e-06
3.43434e-06
3.47448e-06
3.52354e-06
3.58275e-06
3.65314e-06
3.73471e-06
3.83085e-06
3.94113e-06
4.06602e-06
4.21058e-06
4.39507e-06
4.644e-06
4.97726e-06
5.44276e-06
6.44185e-06
1.14636e-05
5.93919e-05
0.000260186
0.00049161
0.000675802
3.30017e-06
3.30034e-06
3.30063e-06
3.30074e-06
3.30087e-06
3.30102e-06
3.30122e-06
3.30147e-06
3.3018e-06
3.3022e-06
3.30269e-06
3.30328e-06
3.30398e-06
3.3048e-06
3.30575e-06
3.30693e-06
3.30842e-06
3.31026e-06
3.31254e-06
3.31536e-06
3.31889e-06
3.32334e-06
3.32912e-06
3.3368e-06
3.34725e-06
3.36025e-06
3.37721e-06
3.40039e-06
3.43132e-06
3.47065e-06
3.51891e-06
3.57737e-06
3.64712e-06
3.72813e-06
3.82389e-06
3.93399e-06
4.05891e-06
4.20365e-06
4.38856e-06
4.6383e-06
4.97276e-06
5.43013e-06
6.38844e-06
1.10862e-05
5.56733e-05
0.00025259
0.000487042
0.000673679
3.30017e-06
3.30034e-06
3.30063e-06
3.30074e-06
3.30087e-06
3.30102e-06
3.30122e-06
3.30147e-06
3.3018e-06
3.3022e-06
3.30269e-06
3.30328e-06
3.30398e-06
3.3048e-06
3.30576e-06
3.30693e-06
3.30841e-06
3.31025e-06
3.31251e-06
3.31532e-06
3.31881e-06
3.32322e-06
3.32891e-06
3.33645e-06
3.34667e-06
3.35927e-06
3.37568e-06
3.39819e-06
3.42838e-06
3.46695e-06
3.51446e-06
3.57224e-06
3.64141e-06
3.72196e-06
3.81742e-06
3.92742e-06
4.05249e-06
4.19759e-06
4.38312e-06
4.63395e-06
4.9676e-06
5.41646e-06
6.33699e-06
1.07409e-05
5.21785e-05
0.000244748
0.000482032
0.000671471
3.30017e-06
3.30034e-06
3.30063e-06
3.30074e-06
3.30087e-06
3.30102e-06
3.30122e-06
3.30147e-06
3.30179e-06
3.30219e-06
3.30269e-06
3.30328e-06
3.30398e-06
3.3048e-06
3.30576e-06
3.30693e-06
3.30841e-06
3.31024e-06
3.31249e-06
3.31527e-06
3.31874e-06
3.32309e-06
3.3287e-06
3.33611e-06
3.34609e-06
3.35831e-06
3.3742e-06
3.39606e-06
3.42555e-06
3.4634e-06
3.51023e-06
3.56739e-06
3.63606e-06
3.71621e-06
3.81146e-06
3.92147e-06
4.0468e-06
4.1924e-06
4.37877e-06
4.63107e-06
4.96117e-06
5.40153e-06
6.28661e-06
1.04212e-05
4.88841e-05
0.000236649
0.000476279
0.000669137
3.30016e-06
3.30034e-06
3.30062e-06
3.30074e-06
3.30087e-06
3.30102e-06
3.30122e-06
3.30147e-06
3.30179e-06
3.30219e-06
3.30268e-06
3.30328e-06
3.30398e-06
3.30481e-06
3.30577e-06
3.30694e-06
3.30841e-06
3.31023e-06
3.31247e-06
3.31523e-06
3.31866e-06
3.32296e-06
3.3285e-06
3.33577e-06
3.34552e-06
3.3574e-06
3.37278e-06
3.39403e-06
3.42285e-06
3.46004e-06
3.50624e-06
3.56286e-06
3.63108e-06
3.71093e-06
3.80604e-06
3.91614e-06
4.04185e-06
4.18811e-06
4.37552e-06
4.62768e-06
4.95339e-06
5.38517e-06
6.23653e-06
1.01216e-05
4.5768e-05
0.000228286
0.000469968
0.000666651
3.30016e-06
3.30034e-06
3.30062e-06
3.30073e-06
3.30087e-06
3.30102e-06
3.30122e-06
3.30147e-06
3.30179e-06
3.30219e-06
3.30268e-06
3.30328e-06
3.30398e-06
3.30481e-06
3.30577e-06
3.30694e-06
3.30841e-06
3.31022e-06
3.31245e-06
3.31519e-06
3.31859e-06
3.32284e-06
3.32829e-06
3.33544e-06
3.34498e-06
3.35652e-06
3.37144e-06
3.39211e-06
3.42031e-06
3.45689e-06
3.50254e-06
3.55867e-06
3.62653e-06
3.70613e-06
3.80118e-06
3.91147e-06
4.03767e-06
4.18473e-06
4.37346e-06
4.62314e-06
4.94416e-06
5.36719e-06
6.1861e-06
9.83744e-06
4.28094e-05
0.000219648
0.000463096
0.000663973
3.30016e-06
3.30034e-06
3.30062e-06
3.30073e-06
3.30086e-06
3.30102e-06
3.30121e-06
3.30147e-06
3.30179e-06
3.30219e-06
3.30268e-06
3.30327e-06
3.30398e-06
3.30481e-06
3.30577e-06
3.30694e-06
3.30841e-06
3.31022e-06
3.31243e-06
3.31515e-06
3.31852e-06
3.32272e-06
3.3281e-06
3.33512e-06
3.34446e-06
3.35568e-06
3.37019e-06
3.39033e-06
3.41796e-06
3.45399e-06
3.49913e-06
3.55485e-06
3.6224e-06
3.70183e-06
3.7969e-06
3.90746e-06
4.03425e-06
4.18226e-06
4.3712e-06
4.6174e-06
4.93342e-06
5.34748e-06
6.13484e-06
9.56546e-06
3.99974e-05
0.000210738
0.000455626
0.000661066
3.30015e-06
3.30034e-06
3.30062e-06
3.30073e-06
3.30086e-06
3.30102e-06
3.30121e-06
3.30147e-06
3.30179e-06
3.30219e-06
3.30268e-06
3.30327e-06
3.30398e-06
3.30481e-06
3.30578e-06
3.30695e-06
3.30841e-06
3.31021e-06
3.31242e-06
3.31512e-06
3.31846e-06
3.32261e-06
3.32792e-06
3.33482e-06
3.34396e-06
3.35489e-06
3.36902e-06
3.3887e-06
3.41581e-06
3.45136e-06
3.49607e-06
3.55143e-06
3.61874e-06
3.69805e-06
3.7932e-06
3.90412e-06
4.03162e-06
4.18073e-06
4.36794e-06
4.61041e-06
4.92112e-06
5.32591e-06
6.08237e-06
9.30299e-06
3.73243e-05
0.000201565
0.000447515
0.000657886
3.30015e-06
3.30034e-06
3.30062e-06
3.30073e-06
3.30086e-06
3.30102e-06
3.30121e-06
3.30146e-06
3.30179e-06
3.30219e-06
3.30268e-06
3.30327e-06
3.30398e-06
3.30481e-06
3.30579e-06
3.30695e-06
3.30841e-06
3.31021e-06
3.3124e-06
3.31509e-06
3.3184e-06
3.32251e-06
3.32774e-06
3.33454e-06
3.34351e-06
3.35416e-06
3.36796e-06
3.38724e-06
3.41388e-06
3.449e-06
3.49335e-06
3.54842e-06
3.61555e-06
3.69481e-06
3.7901e-06
3.90145e-06
4.02975e-06
4.17923e-06
4.36367e-06
4.60212e-06
4.90719e-06
5.3024e-06
6.02827e-06
9.04705e-06
3.47738e-05
0.000192121
0.000438701
0.000654365
3.30015e-06
3.30034e-06
3.30062e-06
3.30073e-06
3.30086e-06
3.30101e-06
3.30121e-06
3.30146e-06
3.30178e-06
3.30219e-06
3.30268e-06
3.30327e-06
3.30398e-06
3.30482e-06
3.30579e-06
3.30696e-06
3.30842e-06
3.31021e-06
3.31239e-06
3.31506e-06
3.31834e-06
3.32242e-06
3.32759e-06
3.33429e-06
3.34309e-06
3.3535e-06
3.36701e-06
3.38594e-06
3.4122e-06
3.44694e-06
3.49099e-06
3.54583e-06
3.61284e-06
3.6921e-06
3.78759e-06
3.89945e-06
4.02867e-06
4.17687e-06
4.35834e-06
4.59251e-06
4.8916e-06
5.27689e-06
5.97218e-06
8.79496e-06
3.23285e-05
0.000182393
0.000429116
0.000650423
3.30015e-06
3.30034e-06
3.30062e-06
3.30073e-06
3.30086e-06
3.30101e-06
3.30121e-06
3.30146e-06
3.30178e-06
3.30218e-06
3.30268e-06
3.30327e-06
3.30398e-06
3.30482e-06
3.3058e-06
3.30697e-06
3.30843e-06
3.31021e-06
3.31239e-06
3.31504e-06
3.3183e-06
3.32233e-06
3.32745e-06
3.33406e-06
3.34271e-06
3.35291e-06
3.36617e-06
3.38481e-06
3.41075e-06
3.4452e-06
3.48899e-06
3.54367e-06
3.61061e-06
3.68991e-06
3.78566e-06
3.8981e-06
4.02758e-06
4.17366e-06
4.35195e-06
4.58157e-06
4.87433e-06
5.24938e-06
5.9139e-06
8.54532e-06
2.99812e-05
0.000172391
0.000418704
0.000645986
3.30014e-06
3.30033e-06
3.30061e-06
3.30073e-06
3.30086e-06
3.30101e-06
3.30121e-06
3.30146e-06
3.30178e-06
3.30218e-06
3.30268e-06
3.30327e-06
3.30398e-06
3.30482e-06
3.30581e-06
3.30698e-06
3.30844e-06
3.31022e-06
3.31239e-06
3.31503e-06
3.31826e-06
3.32226e-06
3.32733e-06
3.33386e-06
3.34239e-06
3.35241e-06
3.36545e-06
3.38387e-06
3.40955e-06
3.44376e-06
3.48738e-06
3.54192e-06
3.60885e-06
3.68825e-06
3.7843e-06
3.89742e-06
4.02577e-06
4.16957e-06
4.34449e-06
4.5693e-06
4.8554e-06
5.21987e-06
5.85328e-06
8.29635e-06
2.77177e-05
0.000162096
0.000407379
0.000640938
3.30014e-06
3.30033e-06
3.30061e-06
3.30072e-06
3.30086e-06
3.30101e-06
3.30121e-06
3.30146e-06
3.30178e-06
3.30218e-06
3.30267e-06
3.30327e-06
3.30398e-06
3.30483e-06
3.30582e-06
3.30699e-06
3.30845e-06
3.31023e-06
3.31239e-06
3.31502e-06
3.31823e-06
3.32221e-06
3.32723e-06
3.3337e-06
3.34212e-06
3.35198e-06
3.36486e-06
3.38311e-06
3.40859e-06
3.44262e-06
3.48613e-06
3.54063e-06
3.60753e-06
3.68709e-06
3.78348e-06
3.89654e-06
4.02325e-06
4.16462e-06
4.33596e-06
4.55572e-06
4.83484e-06
5.1884e-06
5.79027e-06
8.04699e-06
2.55293e-05
0.000151497
0.00039506
0.000635153
3.30014e-06
3.30033e-06
3.30061e-06
3.30072e-06
3.30085e-06
3.30101e-06
3.3012e-06
3.30146e-06
3.30178e-06
3.30218e-06
3.30267e-06
3.30327e-06
3.30399e-06
3.30483e-06
3.30583e-06
3.30701e-06
3.30846e-06
3.31024e-06
3.3124e-06
3.31502e-06
3.31822e-06
3.32217e-06
3.32716e-06
3.33358e-06
3.34191e-06
3.35165e-06
3.3644e-06
3.38253e-06
3.40788e-06
3.44178e-06
3.48523e-06
3.53975e-06
3.60671e-06
3.6864e-06
3.78311e-06
3.89511e-06
4.02004e-06
4.15882e-06
4.32639e-06
4.54086e-06
4.8127e-06
5.15504e-06
5.72499e-06
7.79704e-06
2.34154e-05
0.000140598
0.000381672
0.000628492
3.30013e-06
3.30033e-06
3.30061e-06
3.30072e-06
3.30085e-06
3.30101e-06
3.3012e-06
3.30146e-06
3.30178e-06
3.30218e-06
3.30267e-06
3.30327e-06
3.30399e-06
3.30484e-06
3.30584e-06
3.30703e-06
3.30848e-06
3.31026e-06
3.31241e-06
3.31502e-06
3.31821e-06
3.32215e-06
3.32712e-06
3.3335e-06
3.34177e-06
3.35141e-06
3.36408e-06
3.38214e-06
3.40741e-06
3.44123e-06
3.48468e-06
3.53926e-06
3.60637e-06
3.68619e-06
3.78238e-06
3.89313e-06
4.01614e-06
4.15218e-06
4.31582e-06
4.52476e-06
4.78908e-06
5.1199e-06
5.65769e-06
7.54722e-06
2.13813e-05
0.000129413
0.000367152
0.000620798
3.30013e-06
3.30033e-06
3.30061e-06
3.30072e-06
3.30085e-06
3.301e-06
3.3012e-06
3.30145e-06
3.30177e-06
3.30218e-06
3.30267e-06
3.30327e-06
3.30399e-06
3.30484e-06
3.30585e-06
3.30704e-06
3.3085e-06
3.31028e-06
3.31243e-06
3.31504e-06
3.31823e-06
3.32215e-06
3.3271e-06
3.33346e-06
3.34169e-06
3.35125e-06
3.36388e-06
3.38192e-06
3.40717e-06
3.44097e-06
3.48445e-06
3.53915e-06
3.60645e-06
3.68592e-06
3.78122e-06
3.89062e-06
4.01159e-06
4.14476e-06
4.3043e-06
4.50751e-06
4.76408e-06
5.08318e-06
5.58883e-06
7.2998e-06
1.94472e-05
0.000118041
0.000351516
0.00061196
3.30013e-06
3.30033e-06
3.30061e-06
3.30072e-06
3.30085e-06
3.301e-06
3.3012e-06
3.30145e-06
3.30177e-06
3.30218e-06
3.30267e-06
3.30327e-06
3.30399e-06
3.30485e-06
3.30587e-06
3.30707e-06
3.30853e-06
3.31031e-06
3.31246e-06
3.31507e-06
3.31825e-06
3.32218e-06
3.32712e-06
3.33347e-06
3.34167e-06
3.3512e-06
3.36382e-06
3.38188e-06
3.40716e-06
3.44098e-06
3.48452e-06
3.53939e-06
3.6065e-06
3.68536e-06
3.77965e-06
3.8876e-06
4.00642e-06
4.13659e-06
4.29189e-06
4.4892e-06
4.73782e-06
5.04507e-06
5.5188e-06
7.05612e-06
1.76207e-05
0.000106545
0.000334747
0.000601797
3.30012e-06
3.30033e-06
3.3006e-06
3.30072e-06
3.30085e-06
3.301e-06
3.3012e-06
3.30145e-06
3.30177e-06
3.30217e-06
3.30267e-06
3.30327e-06
3.304e-06
3.30486e-06
3.30588e-06
3.30709e-06
3.30855e-06
3.31034e-06
3.3125e-06
3.31511e-06
3.31829e-06
3.32222e-06
3.32718e-06
3.33353e-06
3.34173e-06
3.35123e-06
3.36388e-06
3.38201e-06
3.40735e-06
3.44123e-06
3.48487e-06
3.53966e-06
3.60632e-06
3.68455e-06
3.77772e-06
3.88412e-06
4.00066e-06
4.12774e-06
4.27868e-06
4.46994e-06
4.71046e-06
5.00581e-06
5.44805e-06
6.81754e-06
1.59058e-05
9.49921e-05
0.000316817
0.000590082
3.30012e-06
3.30033e-06
3.3006e-06
3.30072e-06
3.30085e-06
3.301e-06
3.3012e-06
3.30145e-06
3.30177e-06
3.30217e-06
3.30267e-06
3.30328e-06
3.304e-06
3.30487e-06
3.3059e-06
3.30711e-06
3.30859e-06
3.31037e-06
3.31254e-06
3.31516e-06
3.31835e-06
3.3223e-06
3.32727e-06
3.33364e-06
3.34185e-06
3.35136e-06
3.36406e-06
3.38229e-06
3.40773e-06
3.4417e-06
3.48529e-06
3.53979e-06
3.60596e-06
3.68351e-06
3.77545e-06
3.88022e-06
3.99438e-06
4.1183e-06
4.26478e-06
4.44989e-06
4.68218e-06
4.96572e-06
5.37724e-06
6.58657e-06
1.43165e-05
8.35344e-05
0.000297776
0.000576614
3.30012e-06
3.30033e-06
3.3006e-06
3.30071e-06
3.30084e-06
3.301e-06
3.30119e-06
3.30145e-06
3.30177e-06
3.30217e-06
3.30267e-06
3.30328e-06
3.30401e-06
3.30488e-06
3.30591e-06
3.30714e-06
3.30862e-06
3.31042e-06
3.31259e-06
3.31522e-06
3.31843e-06
3.3224e-06
3.32739e-06
3.3338e-06
3.34204e-06
3.35158e-06
3.36436e-06
3.3827e-06
3.4082e-06
3.44217e-06
3.48565e-06
3.53983e-06
3.60547e-06
3.68229e-06
3.77292e-06
3.87594e-06
3.98765e-06
4.10836e-06
4.2503e-06
4.42921e-06
4.65323e-06
4.92512e-06
5.30705e-06
6.3652e-06
1.28594e-05
7.23296e-05
0.000277673
0.000561167
3.30011e-06
3.30033e-06
3.3006e-06
3.30071e-06
3.30084e-06
3.301e-06
3.30119e-06
3.30145e-06
3.30177e-06
3.30217e-06
3.30267e-06
3.30328e-06
3.30401e-06
3.30489e-06
3.30593e-06
3.30717e-06
3.30866e-06
3.31047e-06
3.31265e-06
3.3153e-06
3.31853e-06
3.32252e-06
3.32756e-06
3.33402e-06
3.3423e-06
3.35188e-06
3.36471e-06
3.3831e-06
3.40864e-06
3.4426e-06
3.48598e-06
3.53985e-06
3.60491e-06
3.68095e-06
3.77019e-06
3.87137e-06
3.98056e-06
4.09802e-06
4.23541e-06
4.4081e-06
4.62387e-06
4.88439e-06
5.23819e-06
6.1554e-06
1.15385e-05
6.15568e-05
0.000256567
0.000543486
3.30011e-06
3.30033e-06
3.3006e-06
3.30071e-06
3.30084e-06
3.30099e-06
3.30119e-06
3.30144e-06
3.30177e-06
3.30217e-06
3.30267e-06
3.30328e-06
3.30402e-06
3.3049e-06
3.30595e-06
3.3072e-06
3.3087e-06
3.31052e-06
3.31272e-06
3.31539e-06
3.31865e-06
3.32268e-06
3.32777e-06
3.33428e-06
3.34262e-06
3.35218e-06
3.36504e-06
3.38347e-06
3.40906e-06
3.44303e-06
3.48632e-06
3.53989e-06
3.60435e-06
3.67958e-06
3.76734e-06
3.86658e-06
3.9732e-06
4.08743e-06
4.22026e-06
4.38676e-06
4.59439e-06
4.84392e-06
5.17144e-06
5.95931e-06
1.03575e-05
5.14333e-05
0.000234554
0.000523387
3.3001e-06
3.30033e-06
3.30059e-06
3.30071e-06
3.30084e-06
3.30099e-06
3.30119e-06
3.30144e-06
3.30177e-06
3.30217e-06
3.30267e-06
3.30328e-06
3.30402e-06
3.30491e-06
3.30597e-06
3.30723e-06
3.30875e-06
3.31058e-06
3.3128e-06
3.3155e-06
3.31879e-06
3.32287e-06
3.32802e-06
3.3346e-06
3.34293e-06
3.35247e-06
3.36535e-06
3.38384e-06
3.40948e-06
3.44348e-06
3.48671e-06
3.54001e-06
3.60389e-06
3.67826e-06
3.76448e-06
3.86168e-06
3.96569e-06
4.07671e-06
4.20505e-06
4.36545e-06
4.56512e-06
4.80414e-06
5.10757e-06
5.77871e-06
9.31632e-06
4.21692e-05
0.000211731
0.000500789
3.3001e-06
3.30032e-06
3.30059e-06
3.30071e-06
3.30084e-06
3.30099e-06
3.30119e-06
3.30144e-06
3.30176e-06
3.30217e-06
3.30267e-06
3.30329e-06
3.30403e-06
3.30492e-06
3.30599e-06
3.30727e-06
3.3088e-06
3.31065e-06
3.31289e-06
3.31562e-06
3.31895e-06
3.32308e-06
3.3283e-06
3.33492e-06
3.34323e-06
3.35275e-06
3.36566e-06
3.38423e-06
3.40994e-06
3.44398e-06
3.48717e-06
3.54026e-06
3.6036e-06
3.6771e-06
3.76172e-06
3.85681e-06
3.9582e-06
4.06605e-06
4.18999e-06
4.34445e-06
4.53642e-06
4.7655e-06
5.04727e-06
5.61489e-06
8.40981e-06
3.39173e-05
0.000188133
0.000475548
3.3001e-06
3.30032e-06
3.30059e-06
3.3007e-06
3.30083e-06
3.30099e-06
3.30119e-06
3.30144e-06
3.30176e-06
3.30217e-06
3.30268e-06
3.30329e-06
3.30404e-06
3.30494e-06
3.30601e-06
3.3073e-06
3.30885e-06
3.31072e-06
3.31299e-06
3.31575e-06
3.31913e-06
3.32333e-06