/*--------------------------------*- C++ -*----------------------------------*\
  =========                 |
  \\      /  F ield         | OpenFOAM: The Open Source CFD Toolbox
   \\    /   O peration     | Website:  https://openfoam.org
    \\  /    A nd           | Version:  10
     \\/     M anipulation  |
\*---------------------------------------------------------------------------*/
FoamFile
{
    format      ascii;
    class       volScalarField;
    location    "10";
    object      nuTilda;
}
// * * * * * * * * * * * * * * * * * * * * * * * * * * * * * * * * * * * * * //

dimensions      [0 2 -1 0 0 0 0];

internalField   nonuniform List<scalar> 
38016
(
4.70421e-05
4.70426e-05
4.70437e-05
4.70441e-05
4.70446e-05
4.70451e-05
4.70459e-05
4.70468e-05
4.7048e-05
4.70495e-05
4.70513e-05
4.70535e-05
4.70561e-05
4.70591e-05
4.70625e-05
4.70669e-05
4.70726e-05
4.70798e-05
4.7089e-05
4.71007e-05
4.71159e-05
4.71357e-05
4.71628e-05
4.7201e-05
4.72569e-05
4.73343e-05
4.74382e-05
4.75767e-05
4.77539e-05
4.79696e-05
4.82236e-05
4.8517e-05
4.885e-05
4.92216e-05
4.96369e-05
5.00904e-05
5.05898e-05
5.11664e-05
5.18945e-05
5.2913e-05
5.48376e-05
6.08082e-05
8.26996e-05
0.000149346
0.000292133
0.00048646
0.000657061
0.000789969
4.70421e-05
4.70426e-05
4.70437e-05
4.70441e-05
4.70446e-05
4.70451e-05
4.70459e-05
4.70468e-05
4.7048e-05
4.70495e-05
4.70513e-05
4.70535e-05
4.70561e-05
4.70591e-05
4.70625e-05
4.70669e-05
4.70726e-05
4.70798e-05
4.7089e-05
4.71007e-05
4.71158e-05
4.71356e-05
4.71625e-05
4.72005e-05
4.7256e-05
4.73327e-05
4.74357e-05
4.7573e-05
4.77488e-05
4.79629e-05
4.8215e-05
4.85062e-05
4.88369e-05
4.92059e-05
4.96182e-05
5.00684e-05
5.05639e-05
5.11354e-05
5.18561e-05
5.28577e-05
5.47116e-05
6.03618e-05
8.11551e-05
0.000145432
0.000285823
0.000480008
0.000651468
0.000785289
4.70421e-05
4.70426e-05
4.70437e-05
4.70441e-05
4.70446e-05
4.70451e-05
4.70459e-05
4.70468e-05
4.7048e-05
4.70495e-05
4.70513e-05
4.70535e-05
4.70561e-05
4.7059e-05
4.70625e-05
4.70668e-05
4.70726e-05
4.70798e-05
4.7089e-05
4.71006e-05
4.71157e-05
4.71354e-05
4.71623e-05
4.72001e-05
4.72553e-05
4.73314e-05
4.74335e-05
4.75698e-05
4.77442e-05
4.79566e-05
4.82067e-05
4.84958e-05
4.88239e-05
4.919e-05
4.95991e-05
5.00456e-05
5.05369e-05
5.1103e-05
5.18159e-05
5.28002e-05
5.45829e-05
5.99112e-05
7.95898e-05
0.000141417
0.000279264
0.000473295
0.000645673
0.000780449
4.70421e-05
4.70426e-05
4.70437e-05
4.70441e-05
4.70446e-05
4.70451e-05
4.70459e-05
4.70468e-05
4.7048e-05
4.70495e-05
4.70513e-05
4.70535e-05
4.70561e-05
4.7059e-05
4.70624e-05
4.70668e-05
4.70726e-05
4.70798e-05
4.70889e-05
4.71006e-05
4.71156e-05
4.71353e-05
4.71621e-05
4.71996e-05
4.72545e-05
4.733e-05
4.74313e-05
4.75664e-05
4.77394e-05
4.795e-05
4.81981e-05
4.84848e-05
4.88103e-05
4.91733e-05
4.9579e-05
5.00217e-05
5.05083e-05
5.10684e-05
5.17725e-05
5.27369e-05
5.44371e-05
5.93876e-05
7.77411e-05
0.000136606
0.000271335
0.000465249
0.000638879
0.000774921
4.70421e-05
4.70426e-05
4.70437e-05
4.70441e-05
4.70446e-05
4.70451e-05
4.70459e-05
4.70468e-05
4.7048e-05
4.70495e-05
4.70513e-05
4.70535e-05
4.70561e-05
4.7059e-05
4.70624e-05
4.70668e-05
4.70725e-05
4.70798e-05
4.70889e-05
4.71005e-05
4.71156e-05
4.71352e-05
4.71618e-05
4.71992e-05
4.72537e-05
4.73286e-05
4.7429e-05
4.75628e-05
4.77343e-05
4.79431e-05
4.81891e-05
4.84733e-05
4.87959e-05
4.91557e-05
4.95577e-05
4.99963e-05
5.04781e-05
5.10315e-05
5.17258e-05
5.26683e-05
5.42781e-05
5.88108e-05
7.56696e-05
0.000131111
0.00026214
0.000455951
0.000631154
0.000768757
4.70421e-05
4.70426e-05
4.70437e-05
4.70441e-05
4.70446e-05
4.70451e-05
4.70459e-05
4.70468e-05
4.7048e-05
4.70495e-05
4.70513e-05
4.70535e-05
4.70561e-05
4.7059e-05
4.70624e-05
4.70668e-05
4.70725e-05
4.70798e-05
4.70889e-05
4.71005e-05
4.71155e-05
4.7135e-05
4.71616e-05
4.71987e-05
4.72529e-05
4.73271e-05
4.74265e-05
4.75591e-05
4.77289e-05
4.79358e-05
4.81795e-05
4.84611e-05
4.87808e-05
4.91371e-05
4.95353e-05
4.99695e-05
5.0446e-05
5.09924e-05
5.16763e-05
5.25963e-05
5.41146e-05
5.82196e-05
7.35102e-05
0.000125242
0.000252115
0.000445801
0.000622821
0.000762204
4.7042e-05
4.70426e-05
4.70437e-05
4.70441e-05
4.70446e-05
4.70451e-05
4.70459e-05
4.70468e-05
4.7048e-05
4.70495e-05
4.70513e-05
4.70535e-05
4.70561e-05
4.7059e-05
4.70624e-05
4.70668e-05
4.70725e-05
4.70797e-05
4.70889e-05
4.71004e-05
4.71154e-05
4.71348e-05
4.71613e-05
4.71982e-05
4.7252e-05
4.73255e-05
4.74239e-05
4.75551e-05
4.77233e-05
4.79281e-05
4.81694e-05
4.84482e-05
4.87647e-05
4.91174e-05
4.95116e-05
4.99413e-05
5.04124e-05
5.09516e-05
5.16249e-05
5.25232e-05
5.39563e-05
5.76579e-05
7.14284e-05
0.000119428
0.000241938
0.000435462
0.000614434
0.000755705
4.7042e-05
4.70426e-05
4.70437e-05
4.70441e-05
4.70446e-05
4.70451e-05
4.70459e-05
4.70468e-05
4.7048e-05
4.70495e-05
4.70513e-05
4.70535e-05
4.70561e-05
4.7059e-05
4.70624e-05
4.70668e-05
4.70725e-05
4.70797e-05
4.70888e-05
4.71004e-05
4.71153e-05
4.71347e-05
4.71609e-05
4.71977e-05
4.7251e-05
4.73238e-05
4.74211e-05
4.75509e-05
4.77172e-05
4.79199e-05
4.81587e-05
4.84345e-05
4.87477e-05
4.90966e-05
4.94867e-05
4.99118e-05
5.03774e-05
5.09092e-05
5.15721e-05
5.24499e-05
5.38057e-05
5.71387e-05
6.94773e-05
0.000113818
0.000231846
0.000425159
0.000606178
0.000749403
4.7042e-05
4.70426e-05
4.70437e-05
4.70441e-05
4.70446e-05
4.70451e-05
4.70459e-05
4.70468e-05
4.7048e-05
4.70495e-05
4.70513e-05
4.70535e-05
4.7056e-05
4.7059e-05
4.70624e-05
4.70668e-05
4.70725e-05
4.70797e-05
4.70888e-05
4.71003e-05
4.71151e-05
4.71345e-05
4.71606e-05
4.71971e-05
4.725e-05
4.73219e-05
4.74181e-05
4.75464e-05
4.77108e-05
4.79112e-05
4.81473e-05
4.84201e-05
4.87298e-05
4.90748e-05
4.94606e-05
4.9881e-05
5.0341e-05
5.08655e-05
5.15181e-05
5.2377e-05
5.36643e-05
5.66674e-05
6.76844e-05
0.000108502
0.000221993
0.000415028
0.000598155
0.000743375
4.7042e-05
4.70426e-05
4.70437e-05
4.70441e-05
4.70446e-05
4.70451e-05
4.70459e-05
4.70468e-05
4.7048e-05
4.70495e-05
4.70513e-05
4.70535e-05
4.7056e-05
4.7059e-05
4.70624e-05
4.70668e-05
4.70725e-05
4.70797e-05
4.70887e-05
4.71002e-05
4.7115e-05
4.71342e-05
4.71602e-05
4.71964e-05
4.72489e-05
4.732e-05
4.7415e-05
4.75416e-05
4.7704e-05
4.7902e-05
4.81353e-05
4.84049e-05
4.8711e-05
4.9052e-05
4.94334e-05
4.9849e-05
5.03035e-05
5.08207e-05
5.14634e-05
5.2305e-05
5.35326e-05
5.62457e-05
6.60633e-05
0.000103536
0.000212487
0.000405161
0.000590428
0.000737659
4.7042e-05
4.70426e-05
4.70437e-05
4.70441e-05
4.70446e-05
4.70451e-05
4.70459e-05
4.70468e-05
4.7048e-05
4.70495e-05
4.70513e-05
4.70535e-05
4.7056e-05
4.7059e-05
4.70624e-05
4.70668e-05
4.70725e-05
4.70797e-05
4.70887e-05
4.71001e-05
4.71149e-05
4.7134e-05
4.71599e-05
4.71958e-05
4.72477e-05
4.73179e-05
4.74116e-05
4.75366e-05
4.76969e-05
4.78923e-05
4.81227e-05
4.83889e-05
4.86913e-05
4.90281e-05
4.94052e-05
4.9816e-05
5.0265e-05
5.07752e-05
5.14084e-05
5.22343e-05
5.34105e-05
5.5873e-05
6.46183e-05
9.89586e-05
0.000203412
0.00039562
0.000583035
0.000732274
4.7042e-05
4.70426e-05
4.70437e-05
4.70441e-05
4.70446e-05
4.70451e-05
4.70458e-05
4.70468e-05
4.7048e-05
4.70495e-05
4.70513e-05
4.70535e-05
4.7056e-05
4.7059e-05
4.70624e-05
4.70668e-05
4.70725e-05
4.70796e-05
4.70887e-05
4.71001e-05
4.71147e-05
4.71338e-05
4.71594e-05
4.71951e-05
4.72465e-05
4.73158e-05
4.74081e-05
4.75312e-05
4.76893e-05
4.78821e-05
4.81094e-05
4.83722e-05
4.86708e-05
4.90034e-05
4.9376e-05
4.9782e-05
5.02258e-05
5.07292e-05
5.13534e-05
5.21652e-05
5.32979e-05
5.55465e-05
6.33448e-05
9.4783e-05
0.000194815
0.00038644
0.000575988
0.000727221
4.7042e-05
4.70426e-05
4.70437e-05
4.70441e-05
4.70445e-05
4.70451e-05
4.70458e-05
4.70468e-05
4.7048e-05
4.70495e-05
4.70513e-05
4.70535e-05
4.7056e-05
4.7059e-05
4.70624e-05
4.70668e-05
4.70725e-05
4.70796e-05
4.70886e-05
4.71e-05
4.71146e-05
4.71335e-05
4.7159e-05
4.71943e-05
4.72451e-05
4.73135e-05
4.74044e-05
4.75256e-05
4.76813e-05
4.78714e-05
4.80955e-05
4.83547e-05
4.86494e-05
4.89778e-05
4.93459e-05
4.97474e-05
5.01861e-05
5.0683e-05
5.12988e-05
5.20981e-05
5.31941e-05
5.52621e-05
6.22328e-05
9.10058e-05
0.000186722
0.000377629
0.000569282
0.000722489
4.7042e-05
4.70426e-05
4.70437e-05
4.70441e-05
4.70445e-05
4.70451e-05
4.70458e-05
4.70468e-05
4.7048e-05
4.70495e-05
4.70513e-05
4.70535e-05
4.7056e-05
4.7059e-05
4.70624e-05
4.70668e-05
4.70725e-05
4.70796e-05
4.70885e-05
4.70999e-05
4.71144e-05
4.71332e-05
4.71585e-05
4.71935e-05
4.72437e-05
4.7311e-05
4.74004e-05
4.75197e-05
4.7673e-05
4.78602e-05
4.8081e-05
4.83366e-05
4.86273e-05
4.89514e-05
4.93152e-05
4.97122e-05
5.01461e-05
5.06369e-05
5.1245e-05
5.20331e-05
5.30986e-05
5.50152e-05
6.12681e-05
8.7611e-05
0.000179134
0.000369179
0.0005629
0.00071806
4.7042e-05
4.70426e-05
4.70437e-05
4.70441e-05
4.70445e-05
4.70451e-05
4.70458e-05
4.70468e-05
4.7048e-05
4.70495e-05
4.70513e-05
4.70535e-05
4.7056e-05
4.7059e-05
4.70624e-05
4.70668e-05
4.70724e-05
4.70795e-05
4.70885e-05
4.70998e-05
4.71142e-05
4.71329e-05
4.7158e-05
4.71926e-05
4.72422e-05
4.73084e-05
4.73963e-05
4.75135e-05
4.76642e-05
4.78484e-05
4.80659e-05
4.83177e-05
4.86045e-05
4.89243e-05
4.92839e-05
4.96766e-05
5.01059e-05
5.05911e-05
5.11921e-05
5.19705e-05
5.30107e-05
5.48014e-05
6.04356e-05
8.45757e-05
0.000172042
0.000361072
0.000556818
0.000713913
4.7042e-05
4.70426e-05
4.70437e-05
4.70441e-05
4.70445e-05
4.70451e-05
4.70458e-05
4.70468e-05
4.7048e-05
4.70495e-05
4.70513e-05
4.70534e-05
4.7056e-05
4.7059e-05
4.70624e-05
4.70668e-05
4.70724e-05
4.70795e-05
4.70884e-05
4.70997e-05
4.7114e-05
4.71326e-05
4.71575e-05
4.71917e-05
4.72407e-05
4.73057e-05
4.73919e-05
4.7507e-05
4.76551e-05
4.78362e-05
4.80502e-05
4.82983e-05
4.85811e-05
4.88967e-05
4.92522e-05
4.96408e-05
5.00659e-05
5.05459e-05
5.11406e-05
5.19105e-05
5.29299e-05
5.46164e-05
5.97207e-05
8.18766e-05
0.000165438
0.000353294
0.000551021
0.000710037
4.7042e-05
4.70426e-05
4.70437e-05
4.7044e-05
4.70445e-05
4.70451e-05
4.70458e-05
4.70468e-05
4.7048e-05
4.70495e-05
4.70513e-05
4.70534e-05
4.7056e-05
4.7059e-05
4.70624e-05
4.70668e-05
4.70724e-05
4.70795e-05
4.70884e-05
4.70995e-05
4.71139e-05
4.71323e-05
4.71569e-05
4.71908e-05
4.7239e-05
4.73029e-05
4.73874e-05
4.75002e-05
4.76456e-05
4.78236e-05
4.8034e-05
4.82783e-05
4.85572e-05
4.88687e-05
4.92202e-05
4.9605e-05
5.00263e-05
5.05016e-05
5.10905e-05
5.18533e-05
5.28556e-05
5.44561e-05
5.9107e-05
7.9479e-05
0.000159285
0.000345803
0.000545466
0.000706399
4.7042e-05
4.70426e-05
4.70437e-05
4.7044e-05
4.70445e-05
4.70451e-05
4.70458e-05
4.70468e-05
4.7048e-05
4.70495e-05
4.70513e-05
4.70534e-05
4.7056e-05
4.7059e-05
4.70624e-05
4.70668e-05
4.70724e-05
4.70794e-05
4.70883e-05
4.70994e-05
4.71136e-05
4.71319e-05
4.71563e-05
4.71898e-05
4.72373e-05
4.72999e-05
4.73827e-05
4.74932e-05
4.76357e-05
4.78105e-05
4.80174e-05
4.82578e-05
4.85328e-05
4.88403e-05
4.91881e-05
4.95694e-05
4.99872e-05
5.04584e-05
5.10423e-05
5.17989e-05
5.27874e-05
5.4317e-05
5.85809e-05
7.73529e-05
0.000153554
0.000338565
0.000540123
0.000702979
4.7042e-05
4.70426e-05
4.70437e-05
4.7044e-05
4.70445e-05
4.70451e-05
4.70458e-05
4.70468e-05
4.7048e-05
4.70494e-05
4.70513e-05
4.70534e-05
4.7056e-05
4.7059e-05
4.70624e-05
4.70668e-05
4.70724e-05
4.70794e-05
4.70882e-05
4.70993e-05
4.71134e-05
4.71316e-05
4.71557e-05
4.71887e-05
4.72355e-05
4.72968e-05
4.73777e-05
4.74859e-05
4.76255e-05
4.7797e-05
4.80003e-05
4.8237e-05
4.85081e-05
4.88118e-05
4.91561e-05
4.95341e-05
4.99489e-05
5.04164e-05
5.0996e-05
5.17475e-05
5.2725e-05
5.41962e-05
5.813e-05
7.54695e-05
0.000148215
0.000331546
0.00053496
0.000699758
4.7042e-05
4.70426e-05
4.70437e-05
4.7044e-05
4.70445e-05
4.70451e-05
4.70458e-05
4.70468e-05
4.7048e-05
4.70494e-05
4.70513e-05
4.70534e-05
4.7056e-05
4.7059e-05
4.70624e-05
4.70668e-05
4.70724e-05
4.70794e-05
4.70881e-05
4.70992e-05
4.71132e-05
4.71312e-05
4.71551e-05
4.71876e-05
4.72336e-05
4.72936e-05
4.73726e-05
4.74783e-05
4.7615e-05
4.77832e-05
4.79829e-05
4.82158e-05
4.84833e-05
4.87833e-05
4.91243e-05
4.94994e-05
4.99115e-05
5.03759e-05
5.09518e-05
5.16992e-05
5.2668e-05
5.40914e-05
5.77437e-05
7.38019e-05
0.000143237
0.000324713
0.000529946
0.000696719
4.7042e-05
4.70426e-05
4.70437e-05
4.7044e-05
4.70445e-05
4.70451e-05
4.70458e-05
4.70468e-05
4.7048e-05
4.70494e-05
4.70512e-05
4.70534e-05
4.7056e-05
4.7059e-05
4.70624e-05
4.70668e-05
4.70723e-05
4.70793e-05
4.70881e-05
4.7099e-05
4.7113e-05
4.71308e-05
4.71544e-05
4.71865e-05
4.72316e-05
4.72903e-05
4.73673e-05
4.74705e-05
4.76043e-05
4.77691e-05
4.79652e-05
4.81945e-05
4.84583e-05
4.87549e-05
4.90928e-05
4.94654e-05
4.98752e-05
5.03369e-05
5.09099e-05
5.16542e-05
5.26163e-05
5.40007e-05
5.74126e-05
7.23256e-05
0.000138592
0.000318036
0.000525053
0.000693847
4.7042e-05
4.70426e-05
4.70437e-05
4.7044e-05
4.70445e-05
4.70451e-05
4.70458e-05
4.70468e-05
4.70479e-05
4.70494e-05
4.70512e-05
4.70534e-05
4.7056e-05
4.7059e-05
4.70624e-05
4.70668e-05
4.70723e-05
4.70793e-05
4.7088e-05
4.70989e-05
4.71127e-05
4.71304e-05
4.71537e-05
4.71853e-05
4.72296e-05
4.72868e-05
4.73618e-05
4.74625e-05
4.75933e-05
4.77547e-05
4.79473e-05
4.8173e-05
4.84335e-05
4.87268e-05
4.9062e-05
4.94322e-05
4.98401e-05
5.02998e-05
5.08705e-05
5.16125e-05
5.25698e-05
5.39223e-05
5.7129e-05
7.10182e-05
0.000134251
0.000311485
0.000520254
0.000691129
4.7042e-05
4.70426e-05
4.70437e-05
4.7044e-05
4.70445e-05
4.70451e-05
4.70458e-05
4.70468e-05
4.70479e-05
4.70494e-05
4.70512e-05
4.70534e-05
4.7056e-05
4.7059e-05
4.70624e-05
4.70668e-05
4.70723e-05
4.70792e-05
4.70879e-05
4.70987e-05
4.71124e-05
4.71299e-05
4.7153e-05
4.71841e-05
4.72275e-05
4.72832e-05
4.73562e-05
4.74543e-05
4.75821e-05
4.77402e-05
4.79293e-05
4.81516e-05
4.84088e-05
4.86991e-05
4.90318e-05
4.94001e-05
4.98065e-05
5.02646e-05
5.08337e-05
5.15742e-05
5.25283e-05
5.38551e-05
5.68863e-05
6.98596e-05
0.000130188
0.000305052
0.000515531
0.000688554
4.7042e-05
4.70426e-05
4.70437e-05
4.7044e-05
4.70445e-05
4.70451e-05
4.70458e-05
4.70467e-05
4.70479e-05
4.70494e-05
4.70512e-05
4.70534e-05
4.7056e-05
4.7059e-05
4.70624e-05
4.70668e-05
4.70723e-05
4.70792e-05
4.70878e-05
4.70986e-05
4.71122e-05
4.71295e-05
4.71522e-05
4.71828e-05
4.72254e-05
4.72796e-05
4.73505e-05
4.7446e-05
4.75708e-05
4.77256e-05
4.79113e-05
4.81303e-05
4.83844e-05
4.8672e-05
4.90025e-05
4.93692e-05
4.97745e-05
5.02315e-05
5.07995e-05
5.15395e-05
5.24919e-05
5.3798e-05
5.66788e-05
6.88329e-05
0.000126394
0.000298812
0.000510907
0.00068611
4.7042e-05
4.70426e-05
4.70437e-05
4.7044e-05
4.70445e-05
4.70451e-05
4.70458e-05
4.70467e-05
4.70479e-05
4.70494e-05
4.70512e-05
4.70534e-05
4.7056e-05
4.7059e-05
4.70624e-05
4.70668e-05
4.70723e-05
4.70791e-05
4.70877e-05
4.70984e-05
4.71119e-05
4.7129e-05
4.71515e-05
4.71816e-05
4.72232e-05
4.72759e-05
4.73447e-05
4.74377e-05
4.75594e-05
4.7711e-05
4.78935e-05
4.81092e-05
4.83606e-05
4.86456e-05
4.89742e-05
4.93396e-05
4.97441e-05
5.02005e-05
5.07682e-05
5.15084e-05
5.24604e-05
5.37503e-05
5.6502e-05
6.791e-05
0.000122777
0.000292443
0.00050671
0.000683786
4.7042e-05
4.70426e-05
4.70437e-05
4.7044e-05
4.70445e-05
4.70451e-05
4.70458e-05
4.70467e-05
4.70479e-05
4.70494e-05
4.70512e-05
4.70534e-05
4.7056e-05
4.7059e-05
4.70624e-05
4.70667e-05
4.70722e-05
4.70791e-05
4.70876e-05
4.70982e-05
4.71116e-05
4.71286e-05
4.71507e-05
4.71803e-05
4.72209e-05
4.72721e-05
4.73389e-05
4.74292e-05
4.7548e-05
4.76965e-05
4.78758e-05
4.80886e-05
4.83373e-05
4.86201e-05
4.89471e-05
4.93115e-05
4.97156e-05
5.01719e-05
5.07398e-05
5.1481e-05
5.24338e-05
5.37112e-05
5.6346e-05
6.70737e-05
0.000119342
0.000285955
0.000502573
0.000681556
4.70419e-05
4.70426e-05
4.70437e-05
4.7044e-05
4.70445e-05
4.70451e-05
4.70458e-05
4.70467e-05
4.70479e-05
4.70494e-05
4.70512e-05
4.70534e-05
4.7056e-05
4.7059e-05
4.70624e-05
4.70667e-05
4.70722e-05
4.7079e-05
4.70875e-05
4.70981e-05
4.71113e-05
4.71281e-05
4.71499e-05
4.7179e-05
4.72187e-05
4.72683e-05
4.7333e-05
4.74208e-05
4.75367e-05
4.76822e-05
4.78584e-05
4.80685e-05
4.83148e-05
4.85956e-05
4.89212e-05
4.92849e-05
4.96891e-05
5.01457e-05
5.07144e-05
5.14575e-05
5.24122e-05
5.36821e-05
5.62022e-05
6.63106e-05
0.000116068
0.000279347
0.000498389
0.000679391
4.70419e-05
4.70426e-05
4.70436e-05
4.7044e-05
4.70445e-05
4.70451e-05
4.70458e-05
4.70467e-05
4.70479e-05
4.70494e-05
4.70512e-05
4.70534e-05
4.7056e-05
4.7059e-05
4.70624e-05
4.70667e-05
4.70722e-05
4.7079e-05
4.70874e-05
4.70979e-05
4.7111e-05
4.71276e-05
4.71491e-05
4.71777e-05
4.72165e-05
4.72646e-05
4.73272e-05
4.74124e-05
4.75255e-05
4.76681e-05
4.78415e-05
4.8049e-05
4.82931e-05
4.85722e-05
4.88968e-05
4.92601e-05
4.96646e-05
5.0122e-05
5.06922e-05
5.14378e-05
5.23956e-05
5.36503e-05
5.60687e-05
6.56161e-05
0.000112964
0.000272635
0.000494072
0.000677273
4.70419e-05
4.70426e-05
4.70436e-05
4.7044e-05
4.70445e-05
4.70451e-05
4.70458e-05
4.70467e-05
4.70479e-05
4.70494e-05
4.70512e-05
4.70534e-05
4.7056e-05
4.7059e-05
4.70625e-05
4.70667e-05
4.70722e-05
4.7079e-05
4.70873e-05
4.70977e-05
4.71107e-05
4.71271e-05
4.71483e-05
4.71763e-05
4.72143e-05
4.72609e-05
4.73214e-05
4.74042e-05
4.75146e-05
4.76544e-05
4.78252e-05
4.80302e-05
4.82725e-05
4.85501e-05
4.88739e-05
4.92371e-05
4.96424e-05
5.0101e-05
5.06733e-05
5.14221e-05
5.23849e-05
5.36163e-05
5.59426e-05
6.49787e-05
0.000110011
0.000265796
0.000489561
0.000675146
4.70419e-05
4.70426e-05
4.70436e-05
4.7044e-05
4.70445e-05
4.70451e-05
4.70458e-05
4.70467e-05
4.70479e-05
4.70494e-05
4.70512e-05
4.70534e-05
4.7056e-05
4.7059e-05
4.70625e-05
4.70667e-05
4.70722e-05
4.70789e-05
4.70873e-05
4.70976e-05
4.71105e-05
4.71266e-05
4.71475e-05
4.7175e-05
4.72121e-05
4.72573e-05
4.73158e-05
4.73962e-05
4.7504e-05
4.76412e-05
4.78095e-05
4.80124e-05
4.8253e-05
4.85293e-05
4.88526e-05
4.9216e-05
4.96224e-05
5.00827e-05
5.06576e-05
5.14105e-05
5.23693e-05
5.35794e-05
5.58202e-05
6.43823e-05
0.000107168
0.000258773
0.000484621
0.000672934
4.70419e-05
4.70425e-05
4.70436e-05
4.7044e-05
4.70445e-05
4.7045e-05
4.70458e-05
4.70467e-05
4.70479e-05
4.70494e-05
4.70512e-05
4.70534e-05
4.7056e-05
4.7059e-05
4.70625e-05
4.70668e-05
4.70722e-05
4.70789e-05
4.70872e-05
4.70974e-05
4.71102e-05
4.71261e-05
4.71467e-05
4.71737e-05
4.72099e-05
4.72538e-05
4.73104e-05
4.73885e-05
4.74938e-05
4.76286e-05
4.77946e-05
4.79956e-05
4.82347e-05
4.85101e-05
4.8833e-05
4.9197e-05
4.96047e-05
5.00672e-05
5.06452e-05
5.14037e-05
5.23501e-05
5.35389e-05
5.56995e-05
6.38187e-05
0.00010442
0.000251563
0.000478947
0.000670597
4.70419e-05
4.70425e-05
4.70436e-05
4.7044e-05
4.70445e-05
4.7045e-05
4.70458e-05
4.70467e-05
4.70479e-05
4.70494e-05
4.70512e-05
4.70534e-05
4.7056e-05
4.7059e-05
4.70625e-05
4.70668e-05
4.70722e-05
4.70788e-05
4.70871e-05
4.70972e-05
4.71099e-05
4.71257e-05
4.71459e-05
4.71724e-05
4.72078e-05
4.72504e-05
4.73053e-05
4.73812e-05
4.74842e-05
4.76166e-05
4.77806e-05
4.79799e-05
4.82178e-05
4.84924e-05
4.88153e-05
4.918e-05
4.95894e-05
5.00545e-05
5.06363e-05
5.13926e-05
5.23269e-05
5.34944e-05
5.55787e-05
6.32806e-05
0.000101754
0.000244167
0.000472727
0.000668109
4.70419e-05
4.70425e-05
4.70436e-05
4.7044e-05
4.70445e-05
4.7045e-05
4.70458e-05
4.70467e-05
4.70479e-05
4.70494e-05
4.70512e-05
4.70534e-05
4.70559e-05
4.7059e-05
4.70625e-05
4.70668e-05
4.70722e-05
4.70788e-05
4.7087e-05
4.70971e-05
4.71096e-05
4.71252e-05
4.71452e-05
4.71712e-05
4.72058e-05
4.72472e-05
4.73004e-05
4.73743e-05
4.74751e-05
4.76055e-05
4.77677e-05
4.79654e-05
4.82023e-05
4.84764e-05
4.87995e-05
4.91652e-05
4.95766e-05
5.00446e-05
5.06314e-05
5.13781e-05
5.22997e-05
5.34455e-05
5.54564e-05
6.27617e-05
9.91591e-05
0.000236584
0.000465958
0.00066543
4.70419e-05
4.70425e-05
4.70436e-05
4.7044e-05
4.70445e-05
4.7045e-05
4.70458e-05
4.70467e-05
4.70479e-05
4.70494e-05
4.70512e-05
4.70534e-05
4.70559e-05
4.7059e-05
4.70625e-05
4.70668e-05
4.70722e-05
4.70788e-05
4.70869e-05
4.70969e-05
4.71093e-05
4.71247e-05
4.71444e-05
4.717e-05
4.72039e-05
4.72441e-05
4.72959e-05
4.73679e-05
4.74668e-05
4.75953e-05
4.77558e-05
4.79523e-05
4.81883e-05
4.84621e-05
4.87856e-05
4.91525e-05
4.95662e-05
5.00377e-05
5.06235e-05
5.136e-05
5.2268e-05
5.33916e-05
5.53315e-05
6.22569e-05
9.6629e-05
0.000228824
0.000458606
0.000662522
4.70419e-05
4.70425e-05
4.70436e-05
4.7044e-05
4.70445e-05
4.7045e-05
4.70458e-05
4.70467e-05
4.70479e-05
4.70494e-05
4.70512e-05
4.70534e-05
4.70559e-05
4.7059e-05
4.70625e-05
4.70668e-05
4.70722e-05
4.70788e-05
4.70869e-05
4.70968e-05
4.71091e-05
4.71243e-05
4.71437e-05
4.71689e-05
4.72021e-05
4.72412e-05
4.72917e-05
4.73621e-05
4.74591e-05
4.75861e-05
4.77452e-05
4.79406e-05
4.8176e-05
4.84496e-05
4.87736e-05
4.91421e-05
4.95584e-05
5.00337e-05
5.06125e-05
5.13381e-05
5.22319e-05
5.33326e-05
5.52027e-05
6.17622e-05
9.41589e-05
0.000220903
0.000450632
0.000659343
4.70419e-05
4.70425e-05
4.70436e-05
4.7044e-05
4.70445e-05
4.7045e-05
4.70457e-05
4.70467e-05
4.70479e-05
4.70494e-05
4.70512e-05
4.70533e-05
4.70559e-05
4.7059e-05
4.70626e-05
4.70668e-05
4.70722e-05
4.70788e-05
4.70868e-05
4.70967e-05
4.71088e-05
4.71239e-05
4.71431e-05
4.71679e-05
4.72004e-05
4.72386e-05
4.72879e-05
4.73569e-05
4.74523e-05
4.75778e-05
4.77358e-05
4.79304e-05
4.81653e-05
4.84389e-05
4.87637e-05
4.91338e-05
4.95531e-05
5.00281e-05
5.05984e-05
5.13123e-05
5.2191e-05
5.32682e-05
5.50692e-05
6.12724e-05
9.17375e-05
0.000212824
0.000441976
0.000655825
4.70418e-05
4.70425e-05
4.70436e-05
4.7044e-05
4.70445e-05
4.7045e-05
4.70457e-05
4.70467e-05
4.70479e-05
4.70493e-05
4.70512e-05
4.70533e-05
4.70559e-05
4.7059e-05
4.70626e-05
4.70669e-05
4.70722e-05
4.70788e-05
4.70868e-05
4.70966e-05
4.71086e-05
4.71236e-05
4.71425e-05
4.71669e-05
4.71988e-05
4.72362e-05
4.72845e-05
4.73523e-05
4.74465e-05
4.75707e-05
4.77277e-05
4.79216e-05
4.81563e-05
4.84301e-05
4.87557e-05
4.91278e-05
4.95503e-05
5.00198e-05
5.0581e-05
5.12826e-05
5.21453e-05
5.31981e-05
5.49301e-05
6.07831e-05
8.93524e-05
0.00020459
0.000432574
0.000651888
4.70418e-05
4.70425e-05
4.70436e-05
4.7044e-05
4.70444e-05
4.7045e-05
4.70457e-05
4.70467e-05
4.70479e-05
4.70493e-05
4.70512e-05
4.70533e-05
4.7056e-05
4.7059e-05
4.70626e-05
4.70669e-05
4.70722e-05
4.70788e-05
4.70867e-05
4.70965e-05
4.71085e-05
4.71232e-05
4.7142e-05
4.71661e-05
4.71975e-05
4.72341e-05
4.72815e-05
4.73484e-05
4.74414e-05
4.75647e-05
4.77209e-05
4.79143e-05
4.81489e-05
4.8423e-05
4.87497e-05
4.91239e-05
4.9546e-05
5.00087e-05
5.05603e-05
5.12489e-05
5.20947e-05
5.31224e-05
5.47846e-05
6.02915e-05
8.69972e-05
0.000196218
0.000422375
0.000647459
4.70418e-05
4.70425e-05
4.70436e-05
4.7044e-05
4.70444e-05
4.7045e-05
4.70457e-05
4.70467e-05
4.70479e-05
4.70493e-05
4.70511e-05
4.70533e-05
4.7056e-05
4.7059e-05
4.70626e-05
4.70669e-05
4.70723e-05
4.70788e-05
4.70867e-05
4.70964e-05
4.71083e-05
4.7123e-05
4.71415e-05
4.71653e-05
4.71963e-05
4.72323e-05
4.7279e-05
4.73451e-05
4.74373e-05
4.75598e-05
4.77154e-05
4.79085e-05
4.81432e-05
4.84177e-05
4.87456e-05
4.91225e-05
4.95394e-05
4.99949e-05
5.05362e-05
5.12111e-05
5.20392e-05
5.3041e-05
5.46325e-05
5.97943e-05
8.46594e-05
0.000187709
0.0004113
0.000642422
4.70418e-05
4.70425e-05
4.70436e-05
4.7044e-05
4.70444e-05
4.7045e-05
4.70457e-05
4.70467e-05
4.70478e-05
4.70493e-05
4.70511e-05
4.70533e-05
4.7056e-05
4.70591e-05
4.70627e-05
4.7067e-05
4.70723e-05
4.70788e-05
4.70867e-05
4.70964e-05
4.71082e-05
4.71228e-05
4.71411e-05
4.71647e-05
4.71954e-05
4.72308e-05
4.72769e-05
4.73425e-05
4.7434e-05
4.75559e-05
4.77113e-05
4.79043e-05
4.8139e-05
4.84142e-05
4.87433e-05
4.9119e-05
4.95305e-05
4.99783e-05
5.05089e-05
5.11693e-05
5.19789e-05
5.29539e-05
5.44736e-05
5.92895e-05
8.23312e-05
0.000179073
0.000399276
0.000636652
4.70418e-05
4.70425e-05
4.70436e-05
4.70439e-05
4.70444e-05
4.7045e-05
4.70457e-05
4.70467e-05
4.70478e-05
4.70493e-05
4.70511e-05
4.70533e-05
4.7056e-05
4.70591e-05
4.70627e-05
4.7067e-05
4.70723e-05
4.70789e-05
4.70868e-05
4.70964e-05
4.71081e-05
4.71226e-05
4.71409e-05
4.71643e-05
4.71946e-05
4.72296e-05
4.72753e-05
4.73405e-05
4.74317e-05
4.75531e-05
4.77084e-05
4.79015e-05
4.81365e-05
4.84122e-05
4.87418e-05
4.91136e-05
4.95193e-05
4.9959e-05
5.04783e-05
5.11237e-05
5.19139e-05
5.28614e-05
5.43081e-05
5.87765e-05
8.00094e-05
0.000170326
0.000386239
0.000630011
4.70418e-05
4.70425e-05
4.70436e-05
4.70439e-05
4.70444e-05
4.7045e-05
4.70457e-05
4.70466e-05
4.70478e-05
4.70493e-05
4.70511e-05
4.70533e-05
4.7056e-05
4.70591e-05
4.70628e-05
4.70671e-05
4.70724e-05
4.70789e-05
4.70868e-05
4.70964e-05
4.71081e-05
4.71225e-05
4.71407e-05
4.7164e-05
4.71941e-05
4.72288e-05
4.72742e-05
4.73392e-05
4.74302e-05
4.75514e-05
4.77067e-05
4.79001e-05
4.81356e-05
4.8412e-05
4.87388e-05
4.91064e-05
4.95059e-05
4.9937e-05
5.04446e-05
5.10743e-05
5.18445e-05
5.27636e-05
5.41366e-05
5.82566e-05
7.76969e-05
0.000161497
0.00037214
0.000622343
4.70418e-05
4.70425e-05
4.70436e-05
4.70439e-05
4.70444e-05
4.7045e-05
4.70457e-05
4.70466e-05
4.70478e-05
4.70493e-05
4.70511e-05
4.70533e-05
4.7056e-05
4.70591e-05
4.70628e-05
4.70672e-05
4.70725e-05
4.7079e-05
4.70869e-05
4.70965e-05
4.71081e-05
4.71225e-05
4.71407e-05
4.71639e-05
4.71938e-05
4.72283e-05
4.72736e-05
4.73386e-05
4.74295e-05
4.75507e-05
4.77061e-05
4.79e-05
4.81362e-05
4.84105e-05
4.87344e-05
4.90974e-05
4.94904e-05
4.99126e-05
5.04079e-05
5.10213e-05
5.17709e-05
5.26611e-05
5.396e-05
5.77336e-05
7.54114e-05
0.000152662
0.000357011
0.000613537
4.70418e-05
4.70425e-05
4.70435e-05
4.70439e-05
4.70444e-05
4.7045e-05
4.70457e-05
4.70466e-05
4.70478e-05
4.70493e-05
4.70511e-05
4.70533e-05
4.7056e-05
4.70591e-05
4.70629e-05
4.70672e-05
4.70726e-05
4.70791e-05
4.7087e-05
4.70966e-05
4.71082e-05
4.71226e-05
4.71407e-05
4.71639e-05
4.71938e-05
4.72281e-05
4.72735e-05
4.73386e-05
4.74296e-05
4.75509e-05
4.77066e-05
4.79011e-05
4.81361e-05
4.84081e-05
4.87286e-05
4.90868e-05
4.94728e-05
4.98858e-05
5.03684e-05
5.0965e-05
5.16934e-05
5.25543e-05
5.37793e-05
5.72105e-05
7.31602e-05
0.000143865
0.000340858
0.000603417
4.70417e-05
4.70425e-05
4.70435e-05
4.70439e-05
4.70444e-05
4.7045e-05
4.70457e-05
4.70466e-05
4.70478e-05
4.70493e-05
4.70511e-05
4.70533e-05
4.7056e-05
4.70592e-05
4.70629e-05
4.70673e-05
4.70727e-05
4.70792e-05
4.70871e-05
4.70967e-05
4.71084e-05
4.71228e-05
4.71409e-05
4.71642e-05
4.71941e-05
4.72283e-05
4.72738e-05
4.73391e-05
4.74304e-05
4.7552e-05
4.7708e-05
4.79018e-05
4.81351e-05
4.84048e-05
4.87216e-05
4.90747e-05
4.94534e-05
4.98568e-05
5.03264e-05
5.09058e-05
5.16125e-05
5.24439e-05
5.35957e-05
5.669e-05
7.09491e-05
0.000135138
0.000323682
0.000591756
4.70417e-05
4.70425e-05
4.70435e-05
4.70439e-05
4.70444e-05
4.7045e-05
4.70457e-05
4.70466e-05
4.70478e-05
4.70493e-05
4.70511e-05
4.70534e-05
4.7056e-05
4.70592e-05
4.7063e-05
4.70674e-05
4.70728e-05
4.70793e-05
4.70873e-05
4.70969e-05
4.71086e-05
4.71231e-05
4.71413e-05
4.71646e-05
4.71946e-05
4.72288e-05
4.72745e-05
4.73403e-05
4.74319e-05
4.75537e-05
4.77093e-05
4.7902e-05
4.81336e-05
4.84009e-05
4.87135e-05
4.90612e-05
4.94324e-05
4.98259e-05
5.02822e-05
5.08441e-05
5.15288e-05
5.23308e-05
5.34107e-05
5.61776e-05
6.8797e-05
0.000126557
0.000305571
0.000578358
4.70417e-05
4.70425e-05
4.70435e-05
4.70439e-05
4.70444e-05
4.7045e-05
4.70457e-05
4.70466e-05
4.70478e-05
4.70493e-05
4.70511e-05
4.70534e-05
4.7056e-05
4.70592e-05
4.7063e-05
4.70675e-05
4.70729e-05
4.70795e-05
4.70875e-05
4.70971e-05
4.71089e-05
4.71234e-05
4.71418e-05
4.71652e-05
4.71953e-05
4.72297e-05
4.72757e-05
4.73417e-05
4.74335e-05
4.75553e-05
4.77105e-05
4.79021e-05
4.81317e-05
4.83964e-05
4.87046e-05
4.90465e-05
4.94098e-05
4.97935e-05
5.02363e-05
5.07805e-05
5.14429e-05
5.22158e-05
5.32262e-05
5.56784e-05
6.67189e-05
0.000118178
0.000286623
0.000562998
4.70417e-05
4.70425e-05
4.70435e-05
4.70439e-05
4.70444e-05
4.70449e-05
4.70457e-05
4.70466e-05
4.70478e-05
4.70493e-05
4.70511e-05
4.70534e-05
4.70561e-05
4.70593e-05
4.70631e-05
4.70676e-05
4.70731e-05
4.70797e-05
4.70877e-05
4.70974e-05
4.71093e-05
4.71239e-05
4.71424e-05
4.7166e-05
4.71963e-05
4.72308e-05
4.72769e-05
4.73431e-05
4.7435e-05
4.75567e-05
4.77116e-05
4.7902e-05
4.81296e-05
4.83916e-05
4.8695e-05
4.90309e-05
4.93862e-05
4.97599e-05
5.0189e-05
5.07154e-05
5.13555e-05
5.21001e-05
5.30441e-05
5.51975e-05
6.47304e-05
0.000110058
0.000266966
0.00054543
4.70417e-05
4.70425e-05
4.70435e-05
4.70439e-05
4.70444e-05
4.70449e-05
4.70457e-05
4.70466e-05
4.70478e-05
4.70493e-05
4.70511e-05
4.70534e-05
4.70561e-05
4.70593e-05
4.70632e-05
4.70677e-05
4.70732e-05
4.70799e-05
4.7088e-05
4.70977e-05
4.71097e-05
4.71245e-05
4.71432e-05
4.7167e-05
4.71974e-05
4.72318e-05
4.7278e-05
4.73443e-05
4.74364e-05
4.75582e-05
4.77127e-05
4.79021e-05
4.81277e-05
4.83868e-05
4.86851e-05
4.90147e-05
4.93618e-05
4.97255e-05
5.0141e-05
5.06497e-05
5.12678e-05
5.19847e-05
5.28665e-05
5.4741e-05
6.28507e-05
0.000102263
0.000246781
0.000525475
4.70417e-05
4.70425e-05
4.70435e-05
4.70439e-05
4.70444e-05
4.70449e-05
4.70457e-05
4.70466e-05
4.70478e-05
4.70493e-05
4.70511e-05
4.70534e-05
4.70561e-05
4.70593e-05
4.70632e-05
4.70679e-05
4.70734e-05
4.70801e-05
4.70882e-05
4.70981e-05
4.71102e-05
4.71252e-05
4.71441e-05
4.71682e-05
4.71985e-05
4.72328e-05
4.7279e-05
4.73456e-05
4.74379e-05
4.75598e-05
4.77141e-05
4.79026e-05
4.81261e-05
4.83823e-05
4.86753e-05
4.89982e-05
4.9337e-05
4.96908e-05
5.00929e-05
5.0584e-05
5.11805e-05
5.1871e-05
5.26957e-05
5.43144e-05
6.1098e-05
9.48574e-05
0.000226279
0.000503065
4.70417e-05
4.70425e-05
4.70435e-05
4.70439e-05
4.70444e-05
4.70449e-05
4.70457e-05
4.70466e-05
4.70478e-05
4.70493e-05
4.70511e-05
4.70534e-05
4.70561e-05
4.70594e-05
4.70633e-05
4.7068e-05
4.70736e-05
4.70804e-05
4.70886e-05
4.70986e-05
4.71108e-05
4.7126e-05
4.71451e-05
4.71693e-05
4.71995e-05
4.72338e-05
4.72801e-05
4.7347e-05
4.74395e-05
4.75616e-05
4.77158e-05
4.79035e-05
4.81252e-05
4.83785e-05
4.86659e-05
4.8982e-05
4.93124e-05
4.96564e-05
5.00454e-05
5.05194e-05
5.10949e-05
5.17603e-05
5.25338e-05
5.39226e-05
5.94869e-05
8.78833e-05
0.000205648
0.000478073
4.70416e-05
4.70425e-05
4.70435e-05
4.70439e-05
4.70444e-05
4.70449e-05
4.70456e-05
4.70466e-05
4.70478e-05
4.70493e-05
4.70511e-05
4.70534e-05
4.70561e-05
4.70594e-05
4.70634e-05
4.70681e-05
4.70738e-05
4.70806e-05
4.70889e-05
4.70991e-05
4.71115e-05
4.71269e-05
4.71462e-05
4.71705e-05