/*--------------------------------*- C++ -*----------------------------------*\
  =========                 |
  \\      /  F ield         | OpenFOAM: The Open Source CFD Toolbox
   \\    /   O peration     | Website:  https://openfoam.org
    \\  /    A nd           | Version:  10
     \\/     M anipulation  |
\*---------------------------------------------------------------------------*/
FoamFile
{
    format      ascii;
    class       volScalarField;
    location    "10";
    object      p;
}
// * * * * * * * * * * * * * * * * * * * * * * * * * * * * * * * * * * * * * //

dimensions      [0 2 -2 0 0 0 0];

internalField   nonuniform List<scalar> 
38016
(
12.8287
3.69536
8.35722
6.33021
6.27395
5.71027
5.06996
4.34146
3.51118
2.54418
1.5315
0.544118
-0.537687
-1.60208
-2.75463
-4.09802
-5.90808
-8.13413
-11.2288
-15.6861
-20.0561
-27.4849
-35.3476
-42.2201
-44.4442
-37.579
-23.469
-3.14965
20.979
49.2306
82.6868
121.887
166.649
216.609
270.777
328.051
387.219
447.193
506.939
565.558
622.305
676.736
728.456
779.396
823.951
869.604
916.495
964.963
12.9786
3.75142
8.46991
6.42467
6.376
5.81692
5.18103
4.461
3.63827
2.68181
1.68347
0.711545
-0.352593
-1.3944
-2.52574
-3.84924
-5.64447
-7.86837
-10.9835
-15.4887
-19.9399
-27.4932
-35.56
-42.609
-45.1655
-38.381
-24.2786
-3.80793
20.4869
48.9281
82.6181
122.122
167.269
217.698
272.412
330.293
390.108
450.743
511.143
570.391
627.733
682.693
734.934
786.322
830.94
876.954
925.036
974.229
13.1281
3.80736
8.58245
6.51899
6.47799
5.92353
5.2922
4.58072
3.76573
2.82007
1.83631
0.88013
-0.165862
-1.18466
-2.29421
-3.59699
-5.37633
-7.59712
-10.731
-15.282
-19.8119
-27.4848
-35.7491
-42.9914
-45.8618
-39.1976
-25.1551
-4.58498
19.8493
48.478
82.4159
122.24
167.772
218.638
273.823
332.178
392.44
453.472
514.193
573.671
631.149
686.121
738.348
789.389
833.523
879.482
927.647
976.698
13.2775
3.86359
8.69505
6.6134
6.5801
6.03023
5.4035
4.70052
3.89331
2.95851
1.98935
1.04898
0.021282
-0.974352
-2.06182
-3.34346
-5.10606
-7.32297
-10.4742
-15.0695
-19.6762
-27.4684
-35.9302
-43.3776
-46.5268
-39.9717
-25.9809
-5.31885
19.2293
47.9903
82.0921
122.124
167.899
219.021
274.455
333.015
393.404
454.454
515.058
574.267
631.323
685.698
737.261
787.062
830.256
875.489
922.538
970.311
13.4267
3.91994
8.80759
6.70778
6.68222
6.13692
5.51485
4.82033
4.02097
3.0971
2.14257
1.21808
0.208792
-0.763605
-1.82881
-3.08912
-4.83457
-7.0475
-10.2157
-14.8553
-19.5391
-27.4529
-36.1173
-43.7862
-47.2073
-40.7702
-26.8278
-6.07659
18.5776
47.4413
81.6478
121.793
167.675
218.87
274.315
332.785
392.942
453.587
513.582
571.963
627.971
681.074
731.224
778.907
820.694
864.217
908.916
954.185
13.5757
3.97652
8.92016
6.80222
6.78441
6.24365
5.62629
4.94017
4.14871
3.2358
2.2959
1.38728
0.396488
-0.552669
-1.59551
-2.83437
-4.5623
-6.7711
-9.95572
-14.639
-19.3987
-27.4334
-36.2968
-44.1865
-47.901
-41.5948
-27.7016
-6.86902
17.8827
46.8258
81.0901
121.272
167.146
218.256
273.502
331.611
391.206
451.046
509.967
566.991
621.361
672.558
720.583
765.463
805.373
846.224
887.575
929.209
13.7244
4.03323
9.03266
6.89664
6.88663
6.35036
5.73777
5.06001
4.2765
3.37461
2.44936
1.55664
0.584453
-0.341423
-1.36177
-2.57902
-4.28903
-6.49359
-9.69407
-14.4209
-19.2559
-27.4128
-36.4757
-44.5972
-48.6092
-42.4532
-28.6187
-7.72237
17.1097
46.1029
80.3752
120.517
166.274
217.141
271.982
329.464
388.167
446.808
504.199
559.352
611.526
660.234
705.512
747.083
784.628
822.03
859.351
896.539
13.873
4.09017
9.14519
6.9911
6.9889
6.4571
5.84932
5.17987
4.40436
3.51352
2.6029
1.7261
0.772591
-0.130008
-1.12776
-2.32331
-4.0151
-6.21535
-9.4313
-14.2013
-19.1115
-27.3915
-36.6537
-45.015
-49.3318
-43.3442
-29.5744
-8.62917
16.2687
45.2833
79.5107
119.527
165.039
215.488
269.686
326.241
383.687
440.699
496.077
548.835
598.264
643.935
685.931
723.816
758.534
791.967
824.921
857.302
14.0214
4.14725
9.25766
7.08554
7.09118
6.56383
5.9609
5.29972
4.53225
3.6525
2.75653
1.89566
0.960906
0.0815869
-0.893469
-2.06724
-3.74046
-5.93636
-9.16737
-13.9804
-18.9653
-27.3698
-36.8309
-45.4411
-50.0701
-44.2723
-30.5766
-9.60218
15.3407
44.341
78.4602
118.252
163.376
213.208
266.504
321.809
377.611
432.554
485.437
535.3
581.493
623.666
661.992
695.956
727.516
756.754
785.31
812.919
14.1695
4.20456
9.37014
7.18002
7.19353
6.67057
6.07256
5.41958
4.66019
3.79157
2.91025
2.06529
1.14937
0.293311
-0.658958
-1.81088
-3.46525
-5.65676
-8.90247
-13.7584
-18.8176
-27.348
-37.0077
-45.8765
-50.8259
-45.2423
-31.6329
-10.6537
14.3073
43.2494
77.1862
116.64
161.214
210.211
262.322
316.032
369.792
422.225
472.153
518.672
561.22
599.561
633.99
663.943
692.187
717.26
741.626
764.776
14.3174
4.26201
9.48255
7.27449
7.29589
6.7773
6.18425
5.53942
4.78816
3.9307
3.06403
2.23497
1.33796
0.505155
-0.424237
-1.55427
-3.18948
-5.37658
-8.63667
-13.5353
-18.6685
-27.3263
-37.1846
-46.3223
-51.601
-46.2593
-32.7521
-11.798
13.1474
41.9788
75.647
114.635
158.478
206.401
257.025
308.785
360.102
409.604
456.163
498.968
537.579
571.897
602.358
628.354
653.294
674.422
694.954
714.111
14.4651
4.31971
9.59498
7.36899
7.39831
6.88405
6.296
5.65927
4.91618
4.0699
3.21788
2.40471
1.52666
0.717059
-0.189385
-1.29749
-2.9133
-5.09601
-8.37021
-13.3114
-18.5185
-27.3055
-37.3621
-46.7797
-52.3976
-47.3292
-33.9446
-13.0513
11.8368
40.495
73.796
112.173
155.087
201.68
250.505
299.954
348.444
394.631
437.476
476.297
510.806
541.055
567.618
589.83
611.612
629.134
646.259
661.939
14.6125
4.37756
9.70733
7.46348
7.50074
6.99078
6.40778
5.7791
5.04421
4.20914
3.37176
2.57447
1.71543
0.929004
0.0455745
-1.04061
-2.63676
-4.81513
-8.10322
-13.0869
-18.3678
-27.2859
-37.5409
-47.2498
-53.2181
-48.4583
-35.2215
-14.4316
10.3484
38.7603
71.5818
109.188
150.959
195.953
242.659
289.446
334.752
377.297
416.171
450.852
481.222
507.484
530.331
549.021
567.877
582.188
596.344
609.052
14.7597
4.43566
9.81969
7.558
7.60322
7.09752
6.51963
5.89893
5.17227
4.34842
3.52567
2.74423
1.90425
1.14092
0.280548
-0.783736
-2.36005
-4.53416
-7.83603
-12.8622
-18.217
-27.2684
-37.7218
-47.7341
-54.0651
-49.6533
-36.5958
-15.9593
8.65189
36.7325
68.9487
105.608
146.008
189.126
233.395
277.19
318.999
357.65
392.393
422.893
449.205
471.664
491.051
506.537
522.746
534.251
545.856
556.051
14.9066
4.49393
9.93197
7.65252
7.70572
7.20424
6.63149
6.01872
5.30034
4.48771
3.67959
2.91397
2.09309
1.35277
0.515497
-0.526945
-2.08325
-4.25326
-7.56884
-12.6377
-18.0665
-27.2535
-37.9055
-48.2339
-54.9414
-50.9214
-38.0814
-17.6566
6.71416
34.3661
65.8374
101.361
140.151
181.11
222.64
263.144
301.202
335.789
366.344
392.726
415.155
434.068
450.298
462.918
476.774
485.86
495.291
503.378
15.0533
4.55245
10.0443
7.74707
7.80827
7.31098
6.74341
6.13851
5.42841
4.62702
3.83349
3.08365
2.28192
1.56451
0.750308
-0.270382
-1.80657
-3.9727
-7.30205
-12.4136
-17.9169
-27.2423
-38.0933
-48.7508
-55.8501
-52.2706
-39.6939
-19.5481
4.49878
31.6115
62.1849
96.3716
133.305
171.83
210.337
247.296
281.419
311.86
338.266
360.686
379.476
395.14
408.534
418.625
430.41
437.426
445.007
451.329
15.1997
4.61116
10.1565
7.84161
7.91083
7.41769
6.85535
6.25825
5.55647
4.76631
3.98736
3.25324
2.47068
1.77611
0.984949
-0.0141377
-1.53015
-3.69267
-7.03597
-12.1906
-17.769
-27.2357
-38.2863
-49.2863
-56.7943
-53.7089
-41.4498
-21.6601
1.9669
28.4165
57.9263
90.5644
125.394
161.219
196.454
229.669
259.746
286.048
308.429
327.109
342.549
355.282
366.157
374.038
384.012
389.265
395.274
400.115
15.3458
4.67013
10.2687
7.9362
8.01344
7.52442
6.96734
6.37797
5.68451
4.90558
4.14115
3.42269
2.65932
1.98746
1.21932
0.241642
-1.25423
-3.41353
-6.77109
-11.9692
-17.6236
-27.2348
-38.4859
-49.8422
-57.7776
-55.2449
-43.3671
-24.0213
-0.923324
24.7256
52.9945
83.8664
116.349
149.228
180.98
210.315
236.313
258.562
277.11
292.321
304.719
314.839
323.5
329.465
337.862
341.618
346.289
349.884
15.4916
4.7293
10.3808
8.03077
8.11606
7.6311
7.07933
6.49764
5.81252
5.04479
4.29485
3.59198
2.8478
2.19853
1.45336
0.496885
-0.978935
-3.13555
-6.50784
-11.75
-17.4816
-27.241
-38.6938
-50.4201
-58.8036
-56.8873
-45.4649
-26.6619
-4.21572
20.482
47.3224
76.2078
106.109
135.825
163.932
189.313
211.274
229.623
244.584
256.621
266.292
274.103
280.832
285.144
292.174
294.664
298.198
300.747
15.6372
4.78875
10.4929
8.12539
8.21874
7.7378
7.19137
6.61727
5.94048
5.18394
4.44842
3.76105
3.03605
2.40921
1.68691
0.751404
-0.70452
-2.85907
-6.24682
-11.5337
-17.3442
-27.2557
-38.9119
-51.0221
-59.8761
-58.6455
-47.7632
-29.6137
-7.95603
15.6271
40.8438
67.5239
94.6253
120.993
145.347
166.768
184.801
199.458
211.106
220.275
227.523
233.31
238.361
241.254
247.101
248.525
251.095
252.768
15.7823
4.84841
10.6049
8.22
8.32141
7.84446
7.30341
6.73682
6.06837
5.32298
4.60182
3.92985
3.22401
2.61944
1.91989
1.00506
-0.43117
-2.58438
-5.98847
-11.3211
-17.2127
-27.2805
-39.1422
-51.6499
-60.9992
-60.5284
-50.2827
-32.9096
-12.1908
10.1025
33.4954
57.7573
81.8618
104.738
125.283
142.801
157.071
168.285
176.914
183.517
188.627
192.646
196.242
197.921
202.741
203.27
205.024
205.966
15.9272
4.90837
10.7169
8.31465
8.42414
7.95113
7.41548
6.85632
6.19618
5.46191
4.75502
4.09832
3.4116
2.82911
2.15215
1.25764
-0.159233
-2.31194
-5.73344
-11.113
-17.0884
-27.3173
-39.3873
-52.3058
-62.1772
-62.5455
-53.0446
-36.5831
-16.967
3.85077
25.2178
46.859
67.7972
87.0822
103.819
117.547
128.263
136.307
142.216
146.544
149.78
152.261
154.596
155.232
159.157
158.931
159.988
160.32
16.0718
4.96856
10.8287
8.4093
8.52687
8.05775
7.52753
6.97573
6.32388
5.60068
4.90797
4.26642
3.59876
3.03813
2.38357
1.50898
0.111041
-2.04219
-5.48238
-10.9102
-16.9729
-27.3682
-39.6497
-52.992
-63.4143
-64.7059
-56.07
-40.6678
-22.3309
-3.1829
15.9576
34.7908
52.4245
68.0636
81.045
91.1427
98.5467
103.708
107.19
109.519
111.125
112.277
113.522
113.264
116.402
115.532
115.982
115.785
16.216
5.02907
10.9406
8.50399
8.62965
8.16438
7.63961
7.09505
6.45148
5.73926
5.06062
4.43407
3.78539
3.24638
2.61396
1.75883
0.379242
-1.77571
-5.23617
-10.714
-16.8677
-27.4353
-39.9331
-53.7111
-64.7152
-67.0186
-59.3803
-45.1972
-28.3279
-11.0503
5.66751
21.5248
35.7503
47.7347
57.0599
63.7245
68.0777
70.644
71.9809
72.5683
72.7651
72.7793
73.0888
72.0744
74.5247
73.1081
73.0271
72.3707
16.3598
5.08983
11.0524
8.59868
8.73242
8.27095
7.75167
7.21426
6.57891
5.87763
5.21293
4.60121
3.97142
3.45376
2.8432
2.00698
0.64506
-1.51302
-4.99561
-10.5253
-16.7749
-27.5206
-40.2407
-54.4657
-66.0848
-69.4927
-62.9962
-50.2037
-35.0007
-19.7983
-5.69153
7.04482
17.7945
26.1581
31.9658
35.4199
36.9917
37.2428
36.6987
35.7786
34.766
33.8073
33.3165
31.6598
33.5062
31.6242
31.0787
30.0219
16.5033
5.15093
11.1641
8.69342
8.83525
8.37752
7.86373
7.33337
6.70619
6.01574
5.36484
4.76776
4.15673
3.66014
3.07107
2.25316
0.908013
-1.25483
-4.76178
-10.3457
-16.6967
-27.6271
-40.576
-55.2594
-67.5282
-72.1368
-66.9374
-55.7177
-42.3886
-29.4676
-18.149
-8.65332
-1.41096
3.40444
5.86441
6.34546
5.40349
3.60488
1.42455
-0.790345
-2.83043
-4.61335
-5.78218
-7.98148
-6.66625
-8.94772
-9.90241
-11.3126
16.6463
5.21231
11.2757
8.78816
8.93807
8.48403
7.97576
7.45233
6.83327
6.15356
5.51628
4.93364
4.34125
3.86539
3.29742
2.49713
1.16772
-1.00178
-4.53564
-10.1765
-16.6354
-27.7577
-40.9434
-56.0947
-69.0505
-74.9588
-71.2222
-61.7669
-50.5256
-40.091
-31.7233
-25.5613
-21.8233
-20.4504
-21.1469
-23.3963
-26.5943
-30.1964
-33.7907
-37.1076
-40.0075
-42.472
-44.1939
-46.8256
-45.9471
-48.5336
-49.8059
-51.4813
16.7889
5.27405
11.3872
8.88295
9.04093
8.59053
8.08779
7.57117
6.96013
6.29105
5.66721
5.09878
4.52484
4.06935
3.522
2.73856
1.42362
-0.75467
-4.31844
-10.0195
-16.5939
-27.9155
-41.3478
-56.9749
-70.6572
-77.9664
-75.8663
-68.3753
-59.4398
-51.6917
-46.4211
-43.6579
-43.3899
-45.3272
-48.9756
-53.7161
-58.9287
-64.1128
-68.926
-73.1794
-76.7969
-79.8224
-81.9918
-84.9606
-84.4342
-87.2401
-88.7464
-90.6041
16.9311
5.3361
11.4986
8.97774
9.14378
8.69697
8.19976
7.68983
7.08675
6.42815
5.81756
5.26308
4.70741
4.27191
3.74464
2.97719
1.67527
-0.514259
-4.11133
-9.87647
-16.5748
-28.1041
-41.7946
-57.9048
-72.3525
-81.1658
-80.8829
-75.5621
-69.152
-64.2824
-62.2365
-62.9101
-66.0502
-71.1458
-77.5369
-84.5393
-91.5462
-98.1179
-103.986
-109.04
-113.264
-116.756
-119.296
-122.534
-122.303
-125.275
-126.967
-128.963
17.0729
5.39854
11.61
9.07258
9.24668
8.80339
8.31171
7.80834
7.2131
6.56485
5.96726
5.42646
4.88884
4.47287
3.96507
3.21266
1.92204
-0.28148
-3.91573
-9.74936
-16.5816
-28.3275
-42.2896
-58.8906
-74.1424
-84.56
-86.2823
-83.3403
-79.6752
-77.8659
-79.1526
-83.2758
-89.7401
-97.8304
-106.757
-115.807
-124.411
-132.202
-138.989
-144.732
-149.476
-153.36
-156.21
-159.656
-159.669
-162.754
-164.579
-166.664
17.2141
5.46132
11.7212
9.16743
9.34956
8.90974
8.4236
7.92664
7.33914
6.70109
6.11625
5.58882
5.06899
4.6721
4.18308
3.44463
2.16337
-0.0572217
-3.733
-9.6403
-16.6174
-28.5897
-42.8391
-59.9384
-76.0362
-88.1484
-92.0701
-91.7156
-91.0123
-92.4347
-97.1425
-104.706
-114.393
-125.31
-136.574
-147.474
-157.501
-166.365
-173.956
-180.3
-185.497
-189.722
-192.845
-196.469
-196.698
-199.869
-201.803
-203.957
17.3549
5.52452
11.8324
9.26234
9.45249
9.01607
8.53545
8.04476
7.46487
6.83682
6.26445
5.75006
5.24773
4.86938
4.39836
3.67269
2.39854
0.157427
-3.56479
-9.55177
-16.6861
-28.8955
-43.4501
-61.0556
-78.044
-91.9334
-98.2405
-100.688
-103.154
-107.968
-116.169
-127.145
-139.944
-153.52
-166.937
-179.511
-190.808
-200.62
-208.918
-215.787
-221.379
-225.899
-229.261
-233.034
-233.462
-236.709
-238.748
-240.974
17.4951
5.5881
11.9434
9.35725
9.5554
9.12232
8.64723
8.16265
7.59023
6.972
6.41179
5.91009
5.42494
5.06455
4.61066
3.89646
2.6269
0.361426
-3.41271
-9.48632
-16.7915
-29.2499
-44.1302
-62.2507
-80.1758
-95.923
-104.775
-110.246
-116.077
-124.429
-136.181
-150.532
-166.328
-182.405
-197.807
-211.898
-224.335
-234.992
-243.921
-251.258
-257.206
-261.992
-265.573
-269.481
-270.097
-273.414
-275.56
-277.865
17.6348
5.65213
12.0544
9.45223
9.65834
9.22855
8.75895
8.28033
7.71522
7.10659
6.55821
6.06879
5.60045
5.25738
4.81963
4.11546
2.84759
0.55352
-3.27866
-9.44694
-16.938
-29.6587
-44.8877
-63.5336
-82.4419
-100.125
-111.663
-120.353
-129.751
-141.763
-157.113
-174.797
-193.481
-211.915
-229.154
-244.631
-258.097
-269.514
-279.01
-286.775
-293.052
-298.095
-301.894
-305.942
-306.755
-310.157
-312.423
-314.815
17.7739
5.71658
12.1651
9.54722
9.76128
9.33469
8.87059
8.39775
7.83979
7.24053
6.70362
6.22606
5.77411
5.44766
5.02496
4.32921
3.05983
0.732482
-3.16457
-9.43675
-17.1302
-30.1279
-45.7314
-64.9153
-84.8533
-104.54
-118.902
-130.95
-144.122
-159.907
-178.878
-199.854
-221.333
-242.005
-260.962
-277.717
-292.12
-304.226
-314.23
-322.383
-328.96
-334.248
-338.26
-342.456
-343.479
-346.986
-349.388
-351.891
17.9124
5.78152
12.2758
9.64228
9.86424
9.44081
8.98217
8.51494
7.96395
7.37381
6.84795
6.38179
5.94577
5.63514
5.22627
4.53714
3.26263
0.89684
-3.07269
-9.45939
-17.3732
-30.6646
-46.671
-66.4083
-87.4216
-109.17
-126.48
-142.005
-159.081
-178.788
-201.392
-225.605
-249.801
-272.625
-293.213
-311.171
-326.449
-339.191
-349.658
-358.16
-365.001
-370.504
-374.704
-379.03
-380.247
-383.853
-386.391
-389.005
18.0502
5.84693
12.3863
9.73736
9.9672
9.54686
9.09365
8.63185
8.08764
7.50635
6.99113
6.53588
6.11525
5.81958
5.42317
4.73868
3.45501
1.04511
-3.00537
-9.51872
-17.6725
-31.2763
-47.7168
-68.0259
-90.1582
-114.01
-134.368
-153.494
-174.542
-198.259
-224.564
-251.962
-278.8
-303.712
-325.885
-345.009
-361.133
-374.493
-385.409
-394.249
-401.344
-407.05
-411.427
-415.87
-417.271
-420.967
-423.627
-426.34
18.1874
5.91288
12.4967
9.83252
10.0702
9.65287
9.20507
8.7485
8.21088
7.63815
7.13309
6.6882
6.28236
6.00068
5.6152
4.93313
3.63581
1.17553
-2.96537
-9.61925
-18.0342
-31.9715
-48.8801
-69.7826
-93.0742
-119.057
-142.533
-165.352
-190.458
-218.191
-248.23
-278.836
-308.258
-335.207
-358.943
-379.23
-396.202
-410.185
-421.562
-430.746
-438.103
-444.007
-448.555
-453.099
-454.659
-458.421
-461.169
-463.944
18.3239
5.97934
12.6069
9.9277
10.1732
9.75881
9.31638
8.86487
8.33362
7.76914
7.27377
6.83865
6.44694
6.17815
5.80191
5.11977
3.80381
1.28626
-2.95567
-9.7658
-18.465
-32.7597
-50.1725
-71.6927
-96.179
-124.299
-150.933
-177.506
-206.725
-238.505
-272.245
-306.065
-338.1
-367.059
-392.35
-413.817
-431.666
-446.296
-458.16
-467.713
-475.359
-481.486
-486.226
-490.888
-492.614
-496.448
-499.28
-502.113
18.4597
6.0464
12.717
10.023
10.2762
9.86472
9.42762
8.98098
8.45587
7.89932
7.41309
6.98711
6.60877
6.35165
5.98273
5.29772
3.95757
1.37509
-2.97974
-9.96396
-18.9722
-33.651
-51.6061
-73.7707
-99.4797
-129.724
-159.517
-189.87
-223.229
-259.073
-296.514
-333.51
-368.186
-399.207
-426.067
-448.751
-467.522
-482.836
-495.214
-505.157
-513.105
-519.466
-524.41
-529.206
-531.112
-535.045
-537.986
-540.909
18.5946
6.11402
12.8268
10.1183
10.3791
9.97056
9.53876
9.0968
8.57761
8.02865
7.55099
7.13347
6.76765
6.52084
6.15711
5.46605
4.09559
1.43968
-3.04137
-10.2197
-19.5638
-34.6565
-53.193
-76.0294
-102.979
-135.31
-168.227
-202.348
-239.846
-279.755
-320.894
-361.075
-398.394
-431.55
-460.046
-484.002
-503.762
-519.827
-532.773
-543.144
-551.417
-558.021
-563.164
-568.083
-570.142
-574.154
-577.178
-580.167
18.7287
6.18229
12.9365
10.2137
10.4822
10.0764
9.64984
9.21237
8.69885
8.15712
7.68743
7.27763
6.92336
6.68531
6.32438
5.62368
4.21607
1.47727
-3.14495
-10.5399
-20.2487
-35.7875
-54.945
-78.4796
-106.676
-141.031
-176.996
-214.831
-256.437
-300.4
-345.236
-388.623
-428.623
-463.979
-494.208
-519.518
-540.352
-557.256
-570.856
-581.738
-590.411
-597.329
-602.729
-607.824
-610.072
-614.201
-617.331
-620.411
18.8619
6.25119
13.046
10.3091
10.5852
10.1822
9.76083
9.32765
8.81958
8.28471
7.82235
7.41948
7.0757
6.84468
6.48386
5.76943
4.31715
1.48486
-3.29526
-10.9317
-21.0361
-37.0558
-56.8725
-81.128
-110.563
-146.85
-185.746
-227.204
-272.851
-320.839
-369.378
-416.006
-458.749
-496.386
-528.457
-555.222
-577.222
-595.051
-609.382
-620.847
-629.988
-637.283
-643.001
-648.332
-650.818
-655.121
-658.409
-661.632
18.9943
6.3208
13.1553
10.4047
10.6882
10.2879
9.87177
9.4427
8.93983
8.41142
7.95573
7.55892
7.22442
6.99846
6.63475
5.90196
4.39663
1.45901
-3.49767
-11.4029
-21.9354
-38.4725
-58.984
-83.9768
-114.622
-152.725
-194.392
-239.342
-288.932
-340.906
-393.152
-443.064
-488.63
-528.647
-562.681
-591.025
-614.298
-633.149
-648.29
-660.399
-670.052
-677.758
-683.817
-689.406
-692.142
-696.644
-700.108
-703.5
19.1256
6.39111
13.2643
10.5003
10.7913
10.3937
9.98263
9.5575
9.05959
8.53725
8.08752
7.69587
7.3693
7.14623
6.77626
6.01984
4.45221
1.39606
-3.75783
-11.9616
-22.9562
-40.0477
-61.2845
-87.0214
-118.829
-158.599
-202.841
-251.111
-304.518
-360.422
-416.379
-469.627
-518.103
-560.616
-596.747
-626.809
-651.482
-671.471
-687.53
-700.381
-710.631
-718.821
-725.286
-731.187
-734.217
-738.961
-742.638
-746.234
19.256
6.4622
13.3732
10.596
10.8944
10.4994
10.0935
9.67209
9.17891
8.66223
8.21772
7.83025
7.5101
7.28748
6.90747
6.12147
4.48134
1.29195
-4.08182
-12.6157
-24.1072
-41.7892
-63.7748
-90.2499
-123.15
-164.411
-210.992
-262.372
-319.443
-379.198
-438.864
-495.51
-546.997
-592.131
-630.504
-662.432
-688.647
-709.899
-726.989
-740.676
-751.607
-760.352
-767.286
-773.554
-776.922
-781.955
-785.888
-789.73
19.3853
6.53407
13.4818
10.6919
10.9975
10.6051
10.2042
9.78647
9.29779
8.78637
8.34632
7.96198
7.64661
7.42172
7.02748
6.20522
4.48138
1.14255
-4.47565
-13.3729
-25.396
-43.7016
-66.4498
-93.6412
-127.539
-170.087
-218.739
-272.986
-333.539
-397.049
-460.418
-520.526
-575.123
-623.006
-663.771
-697.721
-725.627
-748.28
-766.526
-781.155
-792.857
-802.229
-809.693
-816.377
-820.122
-825.487
-829.71
-833.837
19.5135
6.60679
13.5901
10.7878
11.1006
10.7109
10.315
9.90071
9.4163
8.90971
8.47334
8.09102
7.77862
7.54844
7.13533
6.26933
4.44955
0.943573
-4.94523
-14.2399
-26.8277
-45.7856
-69.2977
-97.1648
-131.941
-175.546
-225.971
-282.809
-346.637
-413.787
-480.849
-544.471
-602.28
-653.035
-696.339
-732.469
-762.224
-786.432
-805.981
-821.69
-834.287
-844.392
-852.474
-859.647
-863.821
-869.569
-874.116
-878.558
19.6404
6.68037
13.6981
10.8839
11.2038
10.8166
10.4258
10.0148
9.53445
9.03229
8.5988
8.21735
7.90594
7.6672
7.2301
6.31212
4.38319
0.690979
-5.49579
-15.2217
-28.4048
-48.0359
-72.2985
-100.78
-136.292
-180.699
-232.575
-291.701
-358.573
-429.229
-499.947
-567.132
-628.258
-682.001
-727.976
-766.426
-798.172
-824.066
-845.049
-861.969
-875.593
-886.563
-895.392
-903.175
-907.889
-914.133
-919.108
-923.969
19.7662
6.75489
13.8059
10.9801
11.307
10.9225
10.5366
10.1288
9.65232
9.15419
8.72277
8.34097
8.0284
7.77753
7.31086
6.33188
4.2797
0.381037
-6.1316
-16.3214
-30.1254
-50.4413
-75.4239
-104.437
-140.517
-185.452
-238.439
-299.528
-369.188
-443.197
-517.519
-588.304
-652.842
-709.684
-758.448
-799.346
-833.204
-860.891
-883.391
-901.592
-916.3
-928.188
-937.814
-946.261
-951.57
-958.384
-963.863
-969.231
19.8905
6.83036
13.9134
11.0765
11.4102
11.0284
10.6474
10.2427
9.76994
9.27545
8.8453
8.46189
8.14591
7.87907
7.37683
6.32715
4.13687
0.0108009
-6.85536
-17.5388
-31.9832
-52.983
-78.6368
-108.076
-144.536
-189.709
-243.454
-306.161
-378.333
-455.515
-533.373
-607.78
-675.811
-735.861
-787.522
-830.985
-867.089
-896.704
-920.843
-940.437
-956.322
-969.204
-979.685
-988.841
-994.772
-1002.19
-1008.19
-1014.07
20.0136
6.90686
14.0205
11.173
11.5135
11.1343
10.7584
10.3566
9.88741
9.39617
8.9665
8.5802
8.25839
7.97151
7.42732
6.29663
3.95291
-0.42177
-7.66785
-18.8705
-33.9663
-55.635
-81.8914
-111.632
-148.266
-193.375
-247.517
-311.485
-385.868
-466.023
-547.325
-625.355
-696.955
-760.317
-814.967
-861.079
-899.526
-931.188
-957.098
-978.229
-995.453
-1009.5
-1021.01
-1031.06
-1037.79
-1045.99
-1052.67
-1059.23
20.1351
6.98441
14.1273
11.2697
11.6169
11.2404
10.8694
10.4706
10.0048
9.51644
9.08647
8.69598
8.36586
8.05468
7.46184
6.23945
3.72679
-0.917288
-8.5673
-20.309
-36.0567
-58.3637
-85.1346
-115.031
-151.619
-196.354
-250.532
-315.395
-391.671
-474.57
-559.196
-640.84
-716.078
-782.86
-840.596
-889.404
-930.221
-963.961
-991.653
-1014.33
-1032.88
-1048.09
-1060.61
-1071.55
-1079.05
-1088.04
-1095.38
-1102.63
20.2552
7.0631
14.2337
11.3666
11.7203
11.3466
10.9805
10.5846
10.1221
9.63638
9.20535
8.80937
8.46837
8.12851
7.48014
6.15512
3.45826
-1.47484
-9.54924
-21.8423
-38.2309
-61.1286
-88.3069
-118.198
-154.51
-198.56
-252.417
-317.806
-395.634
-481.016
-568.816
-654.041
-732.984
-803.323
-864.284
-915.868
-959.067
-994.888
-1024.37
-1048.59
-1068.48
-1084.86
-1098.43
-1110.29
-1118.58
-1128.42
-1136.44
-1144.41
20.3736
7.14295
14.3397
11.4637
11.8237
11.4529
11.0917
10.6988
10.2395
9.75608
9.32331
8.92057
8.5661
8.19312
7.48229
6.04381
3.1482
-2.09157
-10.606
-23.4541
-40.4594
-63.8832
-91.3443
-121.057
-156.856
-199.915
-253.103
-318.648
-397.67
-485.24
-576.025
-664.766
-747.474
-821.526
-885.913
-940.467
-986.125
-1024.02
-1055.24
-1080.94
-1102.09
-1119.58
-1134.11
-1146.87
-1155.93
-1166.63
-1175.33
-1184.04
20.4904
7.22404
14.4454
11.561
11.9273
11.5593
11.2032
10.8131
10.357
9.8757
9.44052
9.0298
8.6593
8.24881
7.46865
5.90624
2.79856
-2.76268
-11.7269
-25.1237
-42.7079
-66.5765
-94.1811
-123.533
-158.583
-200.351
-252.539
-317.873
-397.713
-487.137
-580.67
-672.821
-759.316
-837.242
-905.306
-963.163
-1011.56
-1051.7
-1084.71
-1111.83
-1134.11
-1152.52
-1167.8
-1181.27
-1190.82
-1202.17
-1211.31
-1220.56
20.6054
7.3064
14.5505
11.6586
12.0309
11.6659
11.3148
10.9277
10.4748
9.99534
9.55719
9.13734
8.74833
8.29606
7.44003
5.74393
2.41261
-3.4812
-12.8981
-26.8264
-44.9379
-69.1548
-96.7516
-125.557
-159.623
-199.815
-250.689
-315.454
-395.721
-486.625
-582.613
-678.008
-768.259
-850.179
-922.154
-983.693
-1035.26
-1078.08
-1113.24
-1142.05
-1165.65
-1185.06
-1201.07
-1215.2
-1225.07
-1236.88
-1246.18
-1255.72
20.7186
7.39013
14.6552
11.7564
12.1346
11.7728
11.4267
11.0426
10.5929
10.1152
9.67354
9.24351
8.83364
8.33557
7.39756
5.55907
1.99484
-4.23824
-14.103
-28.5347
-47.1086
-71.5637
-98.993
-127.065
-159.922
-198.272
-247.54
-311.389
-391.678
-483.647
-581.74
-680.145
-774.052
-860.019
-936.07
-1001.57
-1056.69
-1102.62
-1140.44
-1171.43
-1196.79
-1217.62
-1234.7
-1249.8
-1260.18
-1272.62
-1282.21
-1292.13
20.8297
7.47527
14.7594
11.8545
12.2383
11.8798
11.5388
11.1578
10.7114
10.2353
9.78981
9.34866
8.91577
8.36826
7.34285
5.35467
1.55106
-5.0229
-15.3226
-30.2184
-49.1775
-73.7499
-100.847
-128.003
-159.437
-195.702
-243.099
-305.698
-385.593
-478.178
-577.96
-679.066
-776.466
-866.456
-946.708
-1016.36
-1075.35
-1124.73
-1165.58
-1199.16
-1226.7
-1249.34
-1267.89
-1284.36
-1295.57
-1308.99
-1319.22
-1329.89
20.9389
7.5619
14.8631
11.9529
12.3422
11.9871
11.6513
11.2735
10.8304
10.3559
9.90624
9.45321
8.99538
8.39523
7.27784
5.13438
1.08813
-5.82281
-16.5361
-31.8462
-51.1026
-75.6634
-102.264
-128.33
-158.14
-192.103
-237.392
-298.425
-377.505
-470.217
-571.215
-674.63
-775.279
-869.184
-953.695
-1027.67
-1090.82
-1144
-1188.31
-1224.92
-1255.11
-1280.03
-1300.54
-1318.82
-1331.34
-1346.22
-1357.65
-1369.63
21.0459
7.65007
14.9661
12.0516
12.4462
12.0946
11.764
11.3895
10.95
10.4771
10.0231
9.55756
9.07318
8.41776
7.20487
4.90252
0.613895
-6.62434
-17.7217
-33.3866
-52.8438
-77.2591
-103.2
-128.013
-156.019
-187.492
-230.466
-289.637
-367.48
-459.801
-561.483
-666.74
-770.296
-867.916
-956.634
-1034.95
-1102.4
-1159.53
-1207.45
-1247.3
-1280.32
-1307.75
-1330.44
-1350.72
-1364.86
-1381.43
-1394.38
-1407.98
21.1507
7.73988
15.0686
12.1506
12.5502
12.2024
11.8771
11.5061
11.0703
10.5991
10.1406
9.66216
9.14993
8.43725
7.12646
4.66377
0.136692
-7.41344
-18.8577
-34.8098
-54.3649
-78.4988
-103.624
-127.034
-153.077
-181.904
-222.389
-279.426
-355.615
-447.009
-548.793
-655.35
-761.387
-862.44
-955.235
-1037.86
-1109.66
-1170.82
-1222.41
-1265.5
-1301.35
-1331.2
-1355.98
-1378.1
-1393.72
-1411.79
-1426.06
-1441.03
21.2532
7.83138
15.1704
12.25
12.6544
12.3104
11.9906
11.6233
11.1913
10.722
10.2591
9.76746
9.22648
8.45522
7.0454
4.42315
-0.334762
-8.17595
-19.9233
-36.0883
-55.6343
-79.3523
-103.514
-125.388
-149.33
-175.39
-213.248
-267.904
-342.036
-431.956
-533.22
-640.471
-748.475
-852.595
-949.253
-1036.13
-1112.27
-1177.57
-1232.96
-1279.44
-1318.26
-1350.69
-1377.68
-1401.78
-1418.99
-1438.66
-1454.34
-1470.78
21.3532
7.92467
15.2716
12.3498
12.7587
12.4188
12.1044
11.741
11.3131
10.8459
10.3787
9.8739
9.30361
8.47319
6.96444
4.18564
-0.792018
-8.89851
-20.8995
-37.1983
-56.6267
-79.7977
-102.858
-123.079
-144.805
-168.011
-203.131
-255.189
-326.876
-414.772
-514.867
-622.149
-731.529
-838.27
-938.502
-1029.5
-1109.96
-1179.48
-1238.77
-1288.78
-1330.7
-1365.82
-1395.15
-1421.32
-1440.21
-1461.57
-1478.74
-1496.73
21.4506
8.01981
15.372
12.45
12.8631
12.5275
12.2187
11.8594
11.4358
10.971
10.4997
9.98186
9.38206
8.49257
6.88621
3.95594
-1.22724
-9.56912
-21.7699
-38.1207
-57.3238
-79.8226
-101.657
-120.123
-139.541
-159.836
-192.139
-241.404
-310.28
-395.609
-493.866
-600.47
-710.569
-819.408
-922.855
-1017.81
-1102.55
-1176.38
-1239.72
-1293.44
-1338.66
-1376.66
-1408.49
-1436.9
-1457.6
-1480.79
-1499.58
-1519.23
21.5454
8.1169
15.4717
12.5507
12.9677
12.6366
12.3334
11.9784
11.5595
11.0973
10.6223
10.0918
9.46267
8.51492
6.81354
3.73898
-1.63246
-10.176
-22.5193
-38.8387
-57.711
-79.4197
-99.9166
-116.543
-133.587
-150.943
-180.378
-226.684
-292.407
-374.639
-470.38
-575.556
-685.646
-795.966
-902.179
-1000.83
-1089.76
-1167.96
-1235.45
-1293.05
-1341.76
-1382.86
-1417.38
-1448.23
-1470.93
-1496.12
-1516.67
-1538.17
21.6374
8.21601
15.5705
12.6518
13.0724
12.746
12.4486
12.0982
11.6842
11.225
10.7467
10.204
9.54628
8.54187
6.74936
3.5398
-1.99982
-10.708
-23.1341
-39.3389
-57.7792
-78.5894
-97.6514
-112.374
-126.999
-141.422
-167.964
-211.173
-273.433
-352.066
-444.619
-547.59
-656.882
-767.978
-876.414
-978.425
-1071.37
-1153.93
-1225.69
-1287.33
-1339.74
-1384.14
-1421.57
-1455.06
-1479.91
-1507.28
-1529.75
-1553.25
21.7266
8.31724
15.6684
12.7534
13.1772
12.8558
12.5643
12.2187
11.81
11.3541
10.8731
10.3192
9.63373
8.57498
6.69641
3.363
-2.32231
-11.1559
-23.6038
-39.6123
-57.5252
-77.3395
-94.8856
-107.659
-119.846
-131.37
-155.022
-195.024
-253.547
-328.115
-416.829
-516.808
-624.464
-735.547
-845.567
-950.487
-1047.22
-1134.04
-1210.16
-1275.98
-1332.29
-1380.22
-1420.79
-1457.15
-1484.35
-1514.11
-1538.68
-1564.38
21.8126
8.42066
15.7654
12.8555
13.2822
12.966
12.6805
12.34
11.9369
11.4849
11.0019
10.4375
9.72579
8.61572
6.65733
3.2129
-2.59368
-11.5115
-23.9205
-39.6542
-56.9516
-75.6842
-91.6497
-102.446
-112.201
-120.886
-141.672
-178.386
-232.937
-303.02
-387.28
-483.487
-588.636
-698.849
-809.714
-916.984
-1017.18
-1108.1
-1188.6
-1258.72
-1319.12
-1370.81
-1414.75
-1454.21
-1483.99
-1516.36
-1543.24
-1571.37
21.8956
8.52639
15.8614
12.9582
13.3874
13.0767
12.7972
12.4622
12.065
11.6174
11.1331
10.5594
9.82318
8.66545
6.63445
3.09321
-2.80876
-11.7691
-24.0794
-39.4638
-56.066
-73.6439
-87.9802
-96.79
-104.141
-110.07
-128.036
-161.406
-211.792
-277.024
-356.263
-447.944
-549.703
-658.13
-769.005
-877.955
-981.159
-1075.94
-1160.79
-1235.26
-1299.9
-1355.55
-1403.09
-1445.92
-1478.49
-1513.71
-1543.1
-1573.87
21.9752
8.63449
15.9564
13.0614
13.4927
13.1878
12.9146
12.5852
12.1944
11.7517
11.2669
10.6852
9.92658
8.72542
6.62991
3.00723
-2.96324
-11.9241
-24.078
-39.0442
-54.8802
-71.243
-83.9177
-90.7488
-95.7429
-99.0191
-114.226
-144.222
-190.292
-250.364
-324.078
-410.523
-508.015
-613.701
-723.666
-833.514
-939.161
-1037.45
-1126.49
-1205.33
-1274.31
-1334.12
-1385.5
-1431.96
-1467.58
-1505.94
-1538.09
-1571.79
22.0515
8.74509
16.0503
13.1653
13.5982
13.2993
13.0325
12.7092
12.3251
11.8879
11.4035
10.8153
10.0366
8.79675
6.64552
2.95763
-3.05398
-11.9741
-23.9165
-38.4013
-53.4098
-68.5101
-79.5058
-84.3819
-87.0854
-87.8267
-100.347
-126.963
-168.608
-223.274
-291.03
-371.588
-463.966
-565.937
-673.999
-783.865
-891.253
-992.594
-1085.53
-1168.72
-1242.07
-1306.18
-1361.59
-1411.93
-1450.83
-1492.61
-1527.81
-1564.75
22.1242
8.85827
16.1429
13.2697
13.7039
13.4113
13.151
12.8341
12.4572
12.026
11.543
10.9498
10.1538
8.8804
6.68288
2.94661
-3.07864
-11.9177
-23.5972
-37.5441
-51.6733
-65.4758
-74.7898