/*--------------------------------*- C++ -*----------------------------------*\
  =========                 |
  \\      /  F ield         | OpenFOAM: The Open Source CFD Toolbox
   \\    /   O peration     | Website:  https://openfoam.org
    \\  /    A nd           | Version:  10
     \\/     M anipulation  |
\*---------------------------------------------------------------------------*/
FoamFile
{
    format      ascii;
    class       surfaceScalarField;
    location    "10";
    object      phi;
}
// * * * * * * * * * * * * * * * * * * * * * * * * * * * * * * * * * * * * * //

dimensions      [0 3 -1 0 0 0 0];

internalField   nonuniform List<scalar> 
75600
(
0.0177258
-2234.18
2234.19
0.0101454
-1849.66
1849.67
0.00374977
-1531.43
1531.44
-0.00157066
-1267.99
1267.99
-0.00599333
-1049.93
1049.94
-0.00966086
-869.457
869.461
-0.0127023
-720.1
720.103
-0.0152272
-596.517
596.52
-0.0173157
-494.285
494.287
-0.0190458
-409.744
409.745
-0.0204784
-339.867
339.868
-0.0216629
-282.153
282.154
-0.0226421
-234.537
234.538
-0.0234514
-195.313
195.314
-0.0241188
-163.078
163.079
-0.0246692
-136.678
136.678
-0.0251228
-115.167
115.167
-0.0254958
-97.7754
97.7757
-0.0258015
-83.8813
83.8816
-0.0260493
-72.9871
72.9873
-0.0262462
-64.7024
64.7026
-0.026393
-58.73
58.7301
-0.0264885
-54.8536
54.8537
-0.0265274
-52.9308
52.9308
-0.0264797
-52.6916
52.6916
-0.0263516
-41.9862
41.9861
-0.0261641
-33.4365
33.4364
-0.0259372
-26.6133
26.613
-0.0256831
-21.1724
21.1721
-0.0254076
-16.8379
16.8377
-0.0251106
-13.388
13.3877
-0.0247905
-10.644
10.6437
-0.0244463
-8.4628
8.46246
-0.0240781
-6.72985
6.72948
-0.0236887
-5.35362
5.35323
-0.0232826
-4.26123
4.26082
-0.0228662
-3.39467
3.39426
-0.0224469
-2.70788
2.70746
-0.022032
-2.1643
2.16388
-0.0216285
-1.73499
1.73459
-0.0212417
-1.39711
1.39672
-0.0208754
-1.13267
1.1323
-0.0205294
-0.927606
0.92726
-0.0202126
-0.770974
0.770657
-0.0199006
-0.654494
0.654182
-0.0196243
-0.571825
0.571549
-0.0193518
-0.518708
0.518435
-0.491796
0.491555
-0.0191105
0.0627823
-2234.16
0.0468039
-1849.65
0.0334403
-1531.42
0.0223458
-1267.98
0.0131336
-1049.92
0.00549464
-869.449
-0.000840615
-720.094
-0.00608738
-596.512
-0.0104398
-494.281
-0.0140461
-409.74
-0.0170356
-339.864
-0.0195145
-282.151
-0.0215707
-234.535
-0.0232777
-195.311
-0.0246969
-163.077
-0.025879
-136.676
-0.0268664
-115.166
-0.0276952
-97.7745
-0.0283931
-83.8806
-0.0289841
-72.9865
-0.029485
-64.7019
-0.0299064
-58.7295
-0.0302517
-54.8532
-0.0305173
-52.9305
-0.0306636
-52.6915
-0.0306426
-41.9862
-0.0304884
-33.4367
-0.030234
-26.6135
-0.0299036
-21.1727
-0.0295118
-16.8383
-0.0290648
-13.3884
-0.028565
-10.6445
-0.0280143
-8.46335
-0.0274162
-6.73045
-0.0267768
-5.35426
-0.0261055
-4.2619
-0.0254139
-3.39537
-0.024715
-2.70858
-0.024022
-2.16499
-0.0233465
-1.73567
-0.022698
-1.39776
-0.0220826
-1.13329
-0.0215013
-0.928187
-0.0209644
-0.771511
-0.0204374
-0.655021
-0.0199534
-0.572309
-0.0194773
-0.519184
-0.49227
-0.019004
0.107001
-2234.13
0.0817063
-1849.62
0.0606281
-1531.4
0.0431427
-1267.96
0.0286458
-1049.91
0.0166248
-869.437
0.00666467
-720.084
-0.0015954
-596.504
-0.00843745
-494.274
-0.0141119
-409.734
-0.0188189
-339.859
-0.0227257
-282.147
-0.0259717
-234.532
-0.0286728
-195.309
-0.0309256
-163.074
-0.0328107
-136.674
-0.0343963
-115.164
-0.0357377
-97.7732
-0.0368825
-83.8795
-0.0378684
-72.9855
-0.0387246
-64.7011
-0.0394723
-58.7288
-0.0401196
-54.8526
-0.0406622
-52.93
-0.0410445
-52.6911
-0.0411398
-41.9861
-0.040997
-33.4368
-0.0406662
-26.6138
-0.0401874
-21.1732
-0.0395884
-16.8389
-0.0388843
-13.3891
-0.0380841
-10.6453
-0.0371945
-8.46424
-0.0362239
-6.73142
-0.0351845
-5.3553
-0.0340923
-4.26299
-0.0329671
-3.39649
-0.0318307
-2.70972
-0.0307042
-2.16612
-0.0296066
-1.73676
-0.0285533
-1.39881
-0.0275535
-1.13429
-0.0266106
-0.92913
-0.0257292
-0.772392
-0.024872
-0.655878
-0.0240593
-0.573122
-0.0232478
-0.519995
-0.493127
-0.0223903
0.151524
-2234.09
0.116778
-1849.59
0.0878951
-1531.37
0.0639631
-1267.94
0.0441286
-1049.89
0.0276992
-869.421
0.0140851
-720.07
0.00280907
-596.493
-0.00654167
-494.264
-0.0142933
-409.727
-0.0207255
-339.853
-0.0260675
-282.141
-0.0305106
-234.527
-0.0342142
-195.305
-0.0373106
-163.071
-0.0399108
-136.672
-0.0421082
-115.162
-0.0439805
-97.7713
-0.0455934
-83.8778
-0.0470002
-72.9841
-0.0482439
-64.6998
-0.0493551
-58.7277
-0.0503501
-54.8516
-0.0512235
-52.9291
-0.0519013
-52.6904
-0.0521503
-41.9859
-0.0520366
-33.437
-0.0516297
-26.6142
-0.0509881
-21.1738
-0.0501552
-16.8398
-0.0491576
-13.3901
-0.048012
-10.6464
-0.046732
-8.46552
-0.045332
-6.73282
-0.0438315
-5.3568
-0.042255
-4.26457
-0.0406318
-3.39811
-0.0389935
-2.71135
-0.0373709
-2.16774
-0.0357912
-1.73834
-0.0342757
-1.40033
-0.0328375
-1.13572
-0.0314829
-0.930485
-0.0302043
-0.773671
-0.028973
-0.65711
-0.0277803
-0.574315
-0.0265702
-0.521205
-0.494441
-0.0252561
0.196853
-2234.03
0.152778
-1849.54
0.1162
-1531.33
0.085922
-1267.91
0.0608532
-1049.87
0.0400975
-869.4
0.0229115
-720.053
0.00867524
-596.478
-0.00312006
-494.253
-0.0128997
-409.717
-0.021016
-339.844
-0.0277601
-282.135
-0.0333737
-234.521
-0.0380596
-195.3
-0.0419854
-163.067
-0.0452928
-136.669
-0.0480993
-115.159
-0.0505058
-97.7689
-0.0525954
-83.8758
-0.0544386
-72.9823
-0.0560927
-64.6982
-0.0575987
-58.7262
-0.0589815
-54.8502
-0.0602362
-52.9278
-0.0612727
-52.6894
-0.0617234
-41.9854
-0.0616739
-33.437
-0.0612152
-26.6147
-0.0604262
-21.1746
-0.0593676
-16.8408
-0.0580787
-13.3914
-0.0565857
-10.6479
-0.0549098
-8.4672
-0.053073
-6.73465
-0.051103
-5.35877
-0.0490339
-4.26664
-0.0469052
-3.40024
-0.0447591
-2.7135
-0.0426363
-2.16986
-0.0405724
-1.74041
-0.038595
-1.4023
-0.036721
-1.1376
-0.0349581
-0.932247
-0.0332878
-0.775341
-0.031692
-0.658705
-0.0301289
-0.575878
-0.0285334
-0.522801
-0.496188
-0.0267863
0.243272
-2233.97
0.190046
-1849.49
0.145947
-1531.29
0.109475
-1267.87
0.0793068
-1049.84
0.0543467
-869.375
0.0336948
-720.033
0.0165963
-596.461
0.00243199
-494.239
-0.00930971
-409.705
-0.0190547
-339.835
-0.0271546
-282.127
-0.0339023
-234.515
-0.0395417
-195.295
-0.0442761
-163.063
-0.0482758
-136.665
-0.0516849
-115.156
-0.0546244
-97.766
-0.0571975
-83.8732
-0.0594912
-72.98
-0.0615759
-64.6961
-0.063507
-58.7243
-0.0653166
-54.8484
-0.0670023
-52.9261
-0.0684574
-52.6879
-0.0691523
-41.9847
-0.0691949
-33.437
-0.0686994
-26.6152
-0.0677673
-21.1755
-0.0664787
-16.8421
-0.0648872
-13.393
-0.0630302
-10.6498
-0.0609379
-8.46929
-0.0586413
-6.73695
-0.0561779
-5.36123
-0.0535929
-4.26922
-0.0509378
-3.4029
-0.0482663
-2.71617
-0.0456301
-2.1725
-0.043074
-1.74296
-0.0406322
-1.40475
-0.0383259
-1.1399
-0.0361623
-0.934411
-0.0341176
-0.777386
-0.0321788
-0.660644
-0.0302766
-0.57778
-0.0283424
-0.524735
-0.4983
-0.0262306
0.29063
-2233.89
0.228135
-1849.43
0.176433
-1531.24
0.133726
-1267.83
0.0984328
-1049.8
0.069263
-869.346
0.04514
-720.008
0.0251819
-596.441
0.00865627
-494.222
-0.00504004
-409.691
-0.016407
-339.823
-0.0258584
-282.117
-0.033738
-234.507
-0.0403314
-195.288
-0.0458779
-163.057
-0.050578
-136.66
-0.0546013
-115.152
-0.0580912
-97.7625
-0.0611702
-83.8701
-0.0639428
-72.9772
-0.0664958
-64.6935
-0.0688969
-58.7219
-0.0711884
-54.8461
-0.0733704
-52.924
-0.0753179
-52.686
-0.0763034
-41.9837
-0.0764604
-33.4368
-0.0759299
-26.6157
-0.0748396
-21.1766
-0.073292
-16.8437
-0.0713582
-13.3949
-0.0690887
-10.652
-0.0665256
-8.47185
-0.063711
-6.73976
-0.0606952
-5.36425
-0.0575367
-4.27238
-0.0543016
-3.40613
-0.0510577
-2.71942
-0.0478694
-2.17569
-0.0447922
-1.74604
-0.0418676
-1.40767
-0.0391211
-1.14265
-0.0365589
-0.936973
-0.0341551
-0.779789
-0.0318956
-0.662904
-0.0296911
-0.579985
-0.027472
-0.526954
-0.500698
-0.0250747
0.339028
-2233.81
0.267078
-1849.35
0.207644
-1531.18
0.15861
-1267.78
0.118138
-1049.76
0.0847166
-869.313
0.0571039
-719.981
0.0342757
-596.418
0.0153846
-494.203
-0.000268151
-409.676
-0.0132584
-339.81
-0.0240626
-282.106
-0.0330761
-234.498
-0.0406292
-195.281
-0.0469964
-163.051
-0.0524094
-136.654
-0.0570638
-115.147
-0.061127
-97.7584
-0.0647415
-83.8665
-0.0680306
-72.9739
-0.0710978
-64.6905
-0.074025
-58.7189
-0.0768666
-54.8433
-0.0796248
-52.9212
-0.0821535
-52.6835
-0.0834849
-41.9824
-0.083782
-33.4365
-0.0832165
-26.6163
-0.0819468
-21.1779
-0.080102
-16.8455
-0.0777744
-13.3972
-0.0750313
-10.6548
-0.0719293
-8.47495
-0.0685253
-6.74317
-0.0648854
-5.36789
-0.0610856
-4.27618
-0.0572094
-3.41001
-0.053342
-2.72328
-0.0495626
-2.17947
-0.0459387
-1.74967
-0.0425198
-1.41109
-0.0393352
-1.14584
-0.0363895
-0.939919
-0.0336557
-0.782523
-0.0311134
-0.665446
-0.0286594
-0.582439
-0.0262235
-0.52939
-0.503291
-0.0236304
0.388651
-2233.71
0.307022
-1849.27
0.239697
-1531.11
0.184236
-1267.72
0.138516
-1049.71
0.100808
-869.275
0.0696873
-719.95
0.0439757
-596.393
0.0227151
-494.182
0.00510576
-409.658
-0.00950689
-339.796
-0.0216636
-282.094
-0.0318139
-234.488
-0.0403312
-195.272
-0.047528
-163.043
-0.0536674
-136.648
-0.0589733
-115.142
-0.0636357
-97.7538
-0.06782
-83.8623
-0.0716686
-72.9701
-0.0753038
-64.6868
-0.0788239
-58.7154
-0.0822952
-54.8398
-0.0857233
-52.9178
-0.0889394
-52.6802
-0.0906835
-41.9807
-0.091153
-33.436
-0.0905555
-26.6169
-0.0890853
-21.1794
-0.0869034
-16.8477
-0.0841274
-13.4
-0.0808457
-10.6581
-0.0771337
-8.47867
-0.0730672
-6.74723
-0.0687327
-5.37222
-0.0642274
-4.28069
-0.0596567
-3.41458
-0.0551258
-2.72781
-0.0507312
-2.18386
-0.046553
-1.75384
-0.0426485
-1.41499
-0.0390492
-1.14943
-0.0357574
-0.943211
-0.032742
-0.785539
-0.0299734
-0.668215
-0.0273376
-0.585075
-0.0247622
-0.531965
-0.505987
-0.0220662
0.439681
-2233.59
0.34813
-1849.18
0.272758
-1531.04
0.210758
-1267.66
0.159725
-1049.66
0.117694
-869.233
0.0830437
-719.915
0.0544487
-596.364
0.0308161
-494.158
0.0112546
-409.638
-0.00497485
-339.78
-0.0184803
-282.081
-0.0297658
-234.476
-0.039251
-195.263
-0.0472863
-163.035
-0.0541668
-136.641
-0.0601448
-115.136
-0.0654361
-97.7485
-0.0702285
-83.8575
-0.0746866
-72.9656
-0.0789517
-64.6826
-0.0831409
-58.7112
-0.0873346
-54.8356
-0.0915426
-52.9136
-0.0955703
-52.6762
-0.0978065
-41.9784
-0.0984887
-33.4354
-0.0978662
-26.6175
-0.0961755
-21.1811
-0.0936153
-16.8503
-0.0903344
-13.4033
-0.0864475
-10.6619
-0.0820538
-8.48306
-0.0772533
-6.75203
-0.0721577
-5.37732
-0.0668911
-4.28595
-0.0615844
-3.41989
-0.056366
-2.73303
-0.051351
-2.18888
-0.0466321
-1.75856
-0.0422727
-1.41935
-0.0383033
-1.1534
-0.0347216
-0.946792
-0.0314879
-0.788772
-0.0285607
-0.671142
-0.0258161
-0.587819
-0.0231777
-0.534604
-0.508702
-0.020462
0.492311
-2233.47
0.390577
-1849.08
0.306967
-1530.95
0.238316
-1267.59
0.181903
-1049.61
0.135511
-869.187
0.0973186
-719.877
0.0658351
-596.333
0.0398423
-494.132
0.0183383
-409.617
0.00050139
-339.762
-0.014346
-282.066
-0.0267639
-234.464
-0.0372181
-195.252
-0.0460989
-163.027
-0.0537354
-136.634
-0.0604088
-115.129
-0.066362
-97.7425
-0.0718066
-83.8521
-0.0769305
-72.9605
-0.0818972
-64.6776
-0.0868436
-58.7063
-0.0918668
-54.8306
-0.0969824
-52.9084
-0.101966
-52.6712
-0.104788
-41.9756
-0.105732
-33.4344
-0.105097
-26.6182
-0.103167
-21.183
-0.100187
-16.8532
-0.0963434
-13.4071
-0.0917835
-10.6665
-0.0866369
-8.48821
-0.0810339
-6.75764
-0.075118
-5.38324
-0.069045
-4.29203
-0.0629759
-3.42596
-0.0570646
-2.73894
-0.0514448
-2.1945
-0.0462201
-1.76379
-0.0414562
-1.42412
-0.0371788
-1.15768
-0.0333757
-0.950596
-0.0299942
-0.792154
-0.0269784
-0.674158
-0.0241941
-0.590603
-0.0215593
-0.537239
-0.511371
-0.0188906
0.546741
-2233.33
0.434525
-1848.97
0.342487
-1530.86
0.267061
-1267.52
0.205198
-1049.54
0.154411
-869.136
0.112668
-719.835
0.0783042
-596.298
0.049962
-494.104
0.0265317
-409.594
0.00710189
-339.742
-0.00907469
-282.05
-0.0226175
-234.45
-0.0340406
-195.241
-0.0437739
-163.017
-0.052182
-136.625
-0.0595766
-115.122
-0.0662278
-97.7359
-0.0723744
-83.8459
-0.0782285
-72.9546
-0.0839783
-64.6718
-0.089783
-58.7005
-0.0957594
-54.8246
-0.101929
-52.9023
-0.108037
-52.6651
-0.111555
-41.9721
-0.11282
-33.4331
-0.112189
-26.6188
-0.110004
-21.1852
-0.106562
-16.8567
-0.102098
-13.4116
-0.0967984
-10.6718
-0.0908305
-8.49417
-0.084363
-6.76411
-0.0775775
-5.39002
-0.0706676
-4.29894
-0.0638278
-3.4328
-0.0572385
-2.74553
-0.0510508
-2.20068
-0.0453749
-1.76946
-0.0402734
-1.42922
-0.0357614
-1.16219
-0.0318112
-0.954546
-0.0283524
-0.795613
-0.0253131
-0.677197
-0.0225486
-0.593368
-0.0199704
-0.539817
-0.513945
-0.0173968
0.603169
-2233.18
0.480156
-1848.84
0.379481
-1530.76
0.297155
-1267.43
0.229769
-1049.48
0.174564
-869.081
0.129265
-719.79
0.0920336
-596.261
0.0613628
-494.073
0.036029
-409.568
0.015029
-339.721
-0.00246001
-282.032
-0.0171163
-234.436
-0.0295045
-195.228
-0.0400961
-163.006
-0.0492916
-136.616
-0.0574346
-115.113
-0.0648251
-97.7285
-0.0717291
-83.839
-0.0783864
-72.948
-0.0850119
-64.6652
-0.0917905
-58.6937
-0.0988611
-54.8175
-0.106254
-52.8949
-0.113679
-52.6577
-0.11802
-41.9677
-0.119679
-33.4315
-0.119076
-26.6194
-0.116623
-21.1876
-0.112681
-16.8606
-0.107539
-13.4168
-0.101435
-10.6779
-0.0945824
-8.50103
-0.0871972
-6.77149
-0.0795066
-5.39771
-0.0717469
-4.3067
-0.0641486
-3.44039
-0.0569179
-2.75276
-0.0502191
-2.20738
-0.0441631
-1.77552
-0.0388024
-1.43458
-0.0341342
-1.16686
-0.0301102
-0.95857
-0.0266393
-0.799084
-0.0236323
-0.680204
-0.0209349
-0.596065
-0.0184518
-0.5423
-0.516392
-0.0160044
0.661811
-2233.02
0.527666
-1848.71
0.418127
-1530.65
0.328765
-1267.35
0.255801
-1049.4
0.196148
-869.021
0.147307
-719.741
0.107227
-596.221
0.0742611
-494.04
0.0470569
-409.541
0.0245162
-339.699
0.00573955
-282.013
-0.0100141
-234.42
-0.0233599
-195.215
-0.0348137
-162.995
-0.0448124
-136.606
-0.0537333
-115.105
-0.0619077
-97.7203
-0.0696315
-83.8313
-0.0771742
-72.9404
-0.0847807
-64.6576
-0.0926649
-58.6858
-0.10099
-54.8092
-0.109798
-52.8861
-0.118763
-52.6487
-0.124076
-41.9624
-0.126212
-33.4294
-0.12567
-26.6199
-0.12294
-21.1904
-0.118461
-16.8651
-0.112588
-13.4226
-0.10562
-10.6849
-0.0978295
-8.50882
-0.0894865
-6.77983
-0.0808722
-5.40633
-0.0722699
-4.3153
-0.0639468
-3.44872
-0.0561319
-2.76058
-0.0489963
-2.21452
-0.0426432
-1.78187
-0.0371068
-1.44012
-0.0323603
-1.17161
-0.0283301
-0.9626
-0.0249029
-0.802511
-0.0219728
-0.683134
-0.0193771
-0.598661
-0.0170149
-0.544662
-0.518695
-0.0147121
0.722895
-2232.84
0.577251
-1848.56
0.458625
-1530.53
0.362101
-1267.25
0.283491
-1049.33
0.219387
-868.957
0.167014
-719.689
0.124131
-596.178
0.088911
-494.005
0.0598806
-409.512
0.0358399
-339.675
0.0158089
-281.993
-0.00101891
-234.403
-0.0153111
-195.201
-0.0276275
-162.982
-0.0384447
-136.595
-0.0481755
-115.095
-0.0571829
-97.7113
-0.0657957
-83.8227
-0.0743161
-72.9319
-0.0830218
-64.6489
-0.0921593
-58.6767
-0.101922
-54.7994
-0.112364
-52.8756
-0.123121
-52.638
-0.129576
-41.956
-0.13229
-33.4266
-0.131851
-26.6204
-0.128844
-21.1934
-0.123796
-16.8701
-0.117145
-13.4293
-0.109262
-10.6928
-0.10049
-8.51759
-0.0911645
-6.78916
-0.0816274
-5.41586
-0.0722118
-4.32471
-0.0632194
-3.45771
-0.0548959
-2.7689
-0.0474107
-2.222
-0.0408499
-1.78843
-0.0352215
-1.44574
-0.0304687
-1.17636
-0.0264905
-0.966578
-0.0231516
-0.80585
-0.0203315
-0.685954
-0.0178607
-0.601132
-0.0156345
-0.546888
-0.520845
-0.0134847
0.786637
-2232.65
0.629104
-1848.41
0.501136
-1530.4
0.397308
-1267.14
0.312991
-1049.24
0.244429
-868.888
0.188562
-719.633
0.142914
-596.133
0.105495
-493.968
0.0746935
-409.481
0.0492013
-339.649
0.0279555
-281.972
0.0100828
-234.385
-0.00513991
-195.185
-0.0183193
-162.969
-0.0299711
-136.584
-0.0405452
-115.084
-0.0504406
-97.7014
-0.0600204
-83.8131
-0.0696221
-72.9223
-0.0795607
-64.639
-0.0901192
-58.6661
-0.101525
-54.788
-0.11385
-52.8633
-0.126686
-52.6251
-0.134479
-41.9482
-0.137888
-33.4232
-0.137607
-26.6206
-0.13433
-21.1966
-0.128689
-16.8758
-0.121219
-13.4367
-0.112382
-10.7016
-0.1026
-8.52737
-0.092288
-6.79947
-0.0818512
-5.4263
-0.0716738
-4.33489
-0.0620878
-3.4673
-0.0533467
-2.77764
-0.0456074
-2.22974
-0.0389297
-1.79511
-0.0332879
-1.45139
-0.0285919
-1.18106
-0.024713
-0.970457
-0.0214961
-0.809067
-0.0188081
-0.688642
-0.0164756
-0.603464
-0.0143919
-0.548972
-0.522841
-0.0123955
0.853284
-2232.44
0.68344
-1848.24
0.545872
-1530.27
0.434604
-1267.03
0.34454
-1049.15
0.271528
-868.815
0.212203
-719.573
0.16386
-596.084
0.124313
-493.928
0.0918087
-409.449
0.0649274
-339.622
0.0425179
-281.95
0.0236375
-234.366
0.00750521
-195.169
-0.00653203
-162.955
-0.0190339
-136.571
-0.030488
-115.073
-0.0413307
-97.6906
-0.0519629
-83.8025
-0.0627617
-72.9115
-0.0740821
-64.6276
-0.0862499
-58.6539
-0.0995297
-54.7747
-0.114017
-52.8488
-0.129259
-52.6099
-0.138612
-41.9388
-0.142853
-33.419
-0.142799
-26.6207
-0.13927
-21.2002
-0.133022
-16.882
-0.124706
-13.4451
-0.114889
-10.7114
-0.10409
-8.53817
-0.0928065
-6.81075
-0.0815165
-5.43759
-0.0706509
-4.34576
-0.0605644
-3.47738
-0.0515073
-2.7867
-0.043613
-2.23764
-0.0369056
-1.80182
-0.0313208
-1.45697
-0.0267341
-1.18564
-0.0229911
-0.9742
-0.0199195
-0.812138
-0.0173771
-0.691185
-0.015189
-0.605653
-0.0132482
-0.550913
-0.524689
-0.0114008
0.92309
-2232.21
0.740491
-1848.05
0.593057
-1530.12
0.474216
-1266.91
0.37836
-1049.06
0.300922
-868.738
0.238206
-719.511
0.187245
-596.033
0.145657
-493.886
0.111535
-409.415
0.0833407
-339.594
0.0598304
-281.926
0.039988
-234.347
0.0229747
-195.152
0.00808621
-162.94
-0.0052796
-136.558
-0.0176526
-115.06
-0.029508
-97.6787
-0.0412877
-83.7907
-0.0534112
-72.8994
-0.0662802
-64.6148
-0.0802671
-58.64
-0.0956815
-54.7593
-0.112644
-52.8319
-0.130658
-52.5919
-0.141826
-41.9277
-0.14706
-33.4138
-0.147318
-26.6204
-0.143568
-21.2039
-0.136712
-16.8889
-0.127538
-13.4542
-0.116733
-10.7222
-0.104929
-8.54998
-0.0927159
-6.82297
-0.0806426
-5.44966
-0.0691828
-4.35722
-0.0587029
-3.48786
-0.0494377
-2.79597
-0.0414858
-2.24559
-0.0348289
-1.80848
-0.0293616
-1.46244
-0.0249262
-1.19008
-0.0213454
-0.977781
-0.0184344
-0.815049
-0.016044
-0.693575
-0.0140012
-0.607695
-0.0121998
-0.552714
-0.526394
-0.010494
0.996313
-2231.97
0.800502
-1847.86
0.642923
-1529.96
0.516375
-1266.79
0.414695
-1048.95
0.332871
-868.656
0.266846
-719.445
0.213368
-595.98
0.169846
-493.843
0.134208
-409.379
0.104791
-339.565
0.0802544
-281.902
0.0595067
-234.326
0.0416466
-195.134
0.0259192
-162.925
0.0116749
-136.544
-0.0016568
-115.047
-0.0145958
-97.6658
-0.0276271
-83.7777
-0.0412182
-72.8858
-0.0558211
-64.6002
-0.0718614
-58.6239
-0.0896994
-54.7415
-0.109489
-52.8121
-0.130687
-52.5707
-0.143956
-41.9144
-0.150368
-33.4073
-0.151044
-26.6198
-0.147121
-21.2079
-0.139674
-16.8963
-0.129646
-13.4643
-0.117869
-10.734
-0.105097
-8.56275
-0.092021
-6.83604
-0.0792577
-5.46243
-0.0673152
-4.36916
-0.0565589
-3.49862
-0.0471949
-2.80533
-0.0392781
-2.25351
-0.0327427
-1.81501
-0.0274425
-1.46774
-0.0231902
-1.19433
-0.0197893
-0.981182
-0.0170472
-0.817791
-0.0148102
-0.695812
-0.0129101
-0.609595
-0.0112418
-0.554383
-0.527967
-0.00966862
1.07324
-2231.71
0.863718
-1847.65
0.695703
-1529.79
0.561321
-1266.65
0.45381
-1048.85
0.367655
-868.57
0.298417
-719.375
0.242548
-595.924
0.19722
-493.798
0.160188
-409.342
0.129655
-339.534
0.104181
-281.876
0.0825947
-234.304
0.0639307
-195.116
0.0473798
-162.908
0.0322459
-136.528
0.0179112
-115.033
0.00381171
-97.6517
-0.0105865
-83.7633
-0.0258016
-72.8706
-0.0423433
-64.5836
-0.0606962
-58.6056
-0.0812799
-54.7209
-0.104287
-52.7891
-0.129128
-52.5458
-0.144824
-41.8987
-0.152627
-33.3995
-0.153848
-26.6185
-0.149823
-21.2119
-0.14182
-16.9043
-0.130968
-13.4751
-0.11826
-10.7467
-0.104584
-8.57642
-0.0907366
-6.84989
-0.077398
-5.47577
-0.0650982
-4.38146
-0.054188
-3.50953
-0.0448323
-2.81469
-0.037035
-2.2613
-0.0306818
-1.82136
-0.0255879
-1.47283
-0.0215413
-1.19838
-0.0183311
-0.984392
-0.0157606
-0.820362
-0.0136744
-0.697898
-0.0119111
-0.611359
-0.0103678
-0.555926
-0.529418
-0.00891713
1.15416
-2231.43
0.930409
-1847.43
0.751668
-1529.61
0.609328
-1266.51
0.495975
-1048.73
0.405572
-868.479
0.333249
-719.303
0.275128
-595.866
0.228145
-493.751
0.189859
-409.304
0.158337
-339.503
0.132029
-281.85
0.109682
-234.282
0.0902651
-195.096
0.0729118
-162.891
0.0568764
-136.512
0.0414934
-115.017
0.02615
-97.6363
0.0102605
-83.7474
-0.00675183
-72.8536
-0.025458
-64.5649
-0.046411
-58.5846
-0.0700965
-54.6972
-0.0967542
-52.7624
-0.12575
-52.5168
-0.144236
-41.8802
-0.153675
-33.3901
-0.155597
-26.6166
-0.151563
-21.2159
-0.143066
-16.9128
-0.131445
-13.4867
-0.117873
-10.7603
-0.103388
-8.59091
-0.0888865
-6.86439
-0.075106
-5.48955
-0.0625848
-4.39398
-0.0516441
-3.52047
-0.0423981
-2.82393
-0.0347952
-2.26891
-0.028674
-1.82749
-0.023816
-1.47769
-0.0199898
-1.2022
-0.0169751
-0.987407
-0.0145745
-0.822762
-0.012634
-0.699839
-0.0109995
-0.612993
-0.0095717
-0.557354
-0.530757
-0.00823281
1.23938
-2231.13
1.00086
-1847.19
0.811079
-1529.42
0.660665
-1266.36
0.541491
-1048.61
0.446932
-868.385
0.371672
-719.228
0.311476
-595.806
0.263007
-493.702
0.223631
-409.264
0.191263
-339.47
0.164242
-281.823
0.141225
-234.259
0.121114
-195.076
0.102985
-162.873
0.0860392
-136.495
0.0695598
-115.001
0.0528822
-97.6196
0.0353637
-83.7299
0.0163662
-72.8346
-0.00475236
-64.5438
-0.028621
-58.5607
-0.0558006
-54.67
-0.0865874
-52.7316
-0.120305
-52.4831
-0.141988
-41.8585
-0.153343
-33.3787
-0.156151
-26.6138
-0.15223
-21.2198
-0.14333
-16.9217
-0.131025
-13.499
-0.11669
-10.7746
-0.101517
-8.60608
-0.086503
-6.87941
-0.0724297
-5.50362
-0.0598286
-4.40658
-0.0489784
-3.53132
-0.0399349
-2.83298
-0.0325909
-2.27625
-0.0267416
-1.83333
-0.0221407
-1.48229
-0.018543
-1.2058
-0.0157243
-0.990225
-0.0134886
-0.824998
-0.0116868
-0.701641
-0.0101717
-0.614508
-0.00884967
-0.558676
-0.531995
-0.00761204
1.32923
-2230.81
1.07536
-1846.93
0.874234
-1529.22
0.715628
-1266.2
0.590658
-1048.49
0.492076
-868.286
0.414047
-719.15
0.351972
-595.743
0.302216
-493.652
0.261936
-409.224
0.228886
-339.437
0.201286
-281.795
0.177704
-234.235
0.156969
-195.055
0.138096
-162.854
0.120231
-136.478
0.102604
-114.983
0.0844951
-97.6015
0.0652005
-83.7106
0.0440115
-72.8134
0.0202097
-64.52
-0.0069202
-58.5336
-0.0380244
-54.6389
-0.0734659
-52.6962
-0.11253
-52.4441
-0.137863
-41.8332
-0.151452
-33.3652
-0.155366
-26.6099
-0.151713
-21.2235
-0.142534
-16.9309
-0.129665
-13.5119
-0.1147
-10.7896
-0.0989897
-8.62179
-0.0836265
-6.89477
-0.0694209
-5.51783
-0.0568831
-4.41912
-0.0462383
-3.54196
-0.0374807
-2.84173
-0.0304493
-2.28328
-0.0249023
-1.83888
-0.0205726
-1.48662
-0.0172063
-1.20917
-0.0145803
-0.992851
-0.0125019
-0.827076
-0.0108301
-0.703313
-0.00942355
-0.615915
-0.00819657
-0.559903
-0.533142
-0.00704906
1.42405
-2230.47
1.15422
-1846.66
0.941427
-1529.01
0.774528
-1266.04
0.643815
-1048.36
0.541342
-868.184
0.460751
-719.069
0.397015
-595.68
0.346199
-493.602
0.305223
-409.183
0.271675
-339.404
0.24365
-281.767
0.219621
-234.211
0.19834
-195.034
0.17876
-162.834
0.159969
-136.459
0.141142
-114.964
0.121498
-97.5819
0.100266
-83.6893
0.0766625
-72.7898
0.0498827
-64.4932
0.0191161
-58.5028
-0.0163824
-54.6034
-0.0570543
-52.6555
-0.102151
-52.399
-0.131635
-41.8037
-0.147818
-33.349
-0.153097
-26.6046
-0.149906
-21.2267
-0.140608
-16.9402
-0.127331
-13.5252
-0.111904
-10.805
-0.0958353
-8.63786
-0.0803033
-6.9103
-0.0661334
-5.53199
-0.0538003
-4.43145
-0.0434678
-3.5523
-0.0350686
-2.85013
-0.0283934
-2.28996
-0.0231704
-1.8441
-0.0191195
-1.49067
-0.0159831
-1.2123
-0.0135433
-0.995291
-0.0116127
-0.829007
-0.0100602
-0.704865
-0.00875054
-0.617224
-0.00760728
-0.561046
-0.534212
-0.00653791
1.5242
-2230.11
1.23778
-1846.38
1.01299
-1528.79
0.83769
-1265.86
0.701289
-1048.22
0.595101
-868.078
0.512171
-718.986
0.447024
-595.615
0.395396
-493.55
0.353958
-409.142
0.320118
-339.37
0.291838
-281.739
0.267491
-234.187
0.245753
-195.012
0.225509
-162.814
0.205789
-136.439
0.185705
-114.944
0.164413
-97.5606
0.141071
-83.666
0.114812
-72.7635
0.0847367
-64.4631
0.0499263
-58.468
0.00952405
-54.563
-0.0370047
-52.609
-0.0888846
-52.3471
-0.123075
-41.7695
-0.142256
-33.3298
-0.149199
-26.5977
-0.146704
-21.2292
-0.13749
-16.9494
-0.124002
-13.5387
-0.108313
-10.8207
-0.0920906
-8.65408
-0.0765855
-6.92581
-0.0626227
-5.54596
-0.0506301
-4.44345
-0.0407072
-3.56222
-0.0327284
-2.85811
-0.026444
-2.29624
-0.0215599
-1.84899
-0.0177898
-1.49444
-0.0148779
-1.21522
-0.0126143
-0.997555
-0.0108199
-0.830801
-0.00937312
-0.706312
-0.00814708
-0.61845
-0.0070737
-0.562119
-0.535218
-0.0060677
1.63006
-2229.73
1.32639
-1846.07
1.08924
-1528.55
0.90545
-1265.68
0.763441
-1048.08
0.65372
-867.968
0.568703
-718.901
0.502427
-595.548
0.450259
-493.498
0.408615
-409.1
0.374708
-339.336
0.346361
-281.711
0.321842
-234.162
0.299743
-194.99
0.278885
-162.793
0.258231
-136.418
0.236832
-114.923
0.213774
-97.5375
0.188137
-83.6403
0.158964
-72.7343
0.12525
-64.4294
0.0859574
-58.4287
0.0401023
-54.5172
-0.0129614
-52.5559
-0.0724421
-52.2876
-0.111945
-41.73
-0.134578
-33.3072
-0.143532
-26.5887
-0.142013
-21.2307
-0.133129
-16.9583
-0.119666
-13.5521
-0.10395
-10.8364
-0.0878006
-8.67023
-0.0725281
-6.94108
-0.0589433
-5.55954
-0.0474197
-4.45497
-0.0379932
-3.57165
-0.0304869
-2.86562
-0.0246201
-2.30211
-0.0200853
-1.85352
-0.0165957
-1.49793
-0.0139025
-1.21791
-0.0118052
-0.999652
-0.0101367
-0.83247
-0.00878298
-0.707666
-0.00762886
-0.619605
-0.0066122
-0.563136
-0.536174
-0.00565528
1.74206
-2229.32
1.42045
-1845.75
1.17061
-1528.3
0.97824
-1265.48
0.830722
-1047.93
0.717693
-867.855
0.630868
-718.814
0.563763
-595.481
0.511362
-493.445
0.469793
-409.058
0.436067
-339.302
0.407859
-281.682
0.383326
-234.138
0.360978
-194.968
0.339559
-162.772
0.317972
-136.397
0.295197
-114.9
0.270247
-97.5126
0.242119
-83.6122
0.209755
-72.702
0.172037
-64.3917
0.127795
-58.3845
0.0759017
-54.4653
0.0155746
-52.4956
-0.0523913
-52.2196
-0.0978726
-41.6845
-0.124459
-33.2806
-0.135818
-26.5774
-0.135603
-21.2309
-0.127343
-16.9666
-0.114181
-13.5653
-0.0987016
-10.8519
-0.0828711
-8.68606
-0.0680426
-6.95591
-0.055002
-5.57258
-0.0440652
-4.46591
-0.0352103
-3.5805
-0.0282188
-2.87261
-0.0227891
-2.30754
-0.0186097
-1.8577
-0.0153988
-1.50114
-0.0129199
-1.22039
-0.0109825
-1.00159
-0.00943443
-0.834018
-0.00816787
-0.708932
-0.00708211
-0.62069
-0.00611794
-0.5641
-0.537085
-0.00520704
1.8606
-2228.88
1.52031
-1845.41
1.25739
-1528.04
1.05635
-1265.28
0.903424
-1047.78
0.787308
-867.739
0.698968
-718.726
0.631363
-595.414
0.579048
-493.393
0.537852
-409.017
0.50457
-339.269
0.476718
-281.655
0.452341
-234.113
0.429857
-194.946
0.407938
-162.75
0.385415
-136.374
0.361199
-114.876
0.334225
-97.4856
0.303396
-83.5814
0.267549
-72.6661
0.225438
-64.3496
0.175747
-58.3348
0.117191
-54.4067
0.0488246
-52.4272
-0.0285781
-52.1422
-0.0807627
-41.6324
-0.111859
-33.2495
-0.12607
-26.5632
-0.127539
-21.2294
-0.120241
-16.9739
-0.107696
-13.5778
-0.0927482
-10.8668
-0.0774961
-8.70132
-0.0633251
-6.97008
-0.0509881
-5.58492
-0.0407452
-4.47615
-0.0325257
-3.58872
-0.0260815
-2.87905
-0.0211007
-2.31252
-0.0172765
-1.86153
-0.0143373
-1.50408
-0.0120631
-1.22266
-0.010275
-1.00338
-0.00883686
-0.835456
-0.00764747
-0.710121
-0.0066211
-0.621717
-0.00569922
-0.565022
-0.53796
-0.00482479
1.98611
-2228.42
1.62634
-1845.05
1.34993
-1527.76
1.14009
-1265.07
0.981853
-1047.62
0.862879
-867.62
0.773336
-718.637
0.705559
-595.346
0.653664
-493.341
0.613154
-408.977
0.580589
-339.236
0.553322
-281.627
0.529277
-234.089
0.506777
-194.923
0.484418
-162.727
0.460957
-136.351
0.435231
-114.85
0.40609
-97.4565
0.372339
-83.5476
0.332699
-72.6265
0.285785
-64.3027
0.230119
-58.2791
0.164237
-54.3409
0.0870113
-52.35
-0.000843649
-52.0544
-0.0605201
-41.5727
-0.0967381
-33.2133
-0.114302
-26.5456
-0.117887
-21.2259
-0.111941
-16.9798
-0.100367
-13.5894
-0.086267
-10.8809
-0.0718634
-8.71572
-0.0585614
-6.98338
-0.0470781
-5.5964
-0.037624
-4.4856
-0.0300924
-3.59625
-0.0242188
-2.88493
-0.0196913
-2.31705
-0.0162159
-1.865
-0.0135367
-1.50676
-0.0114519
-1.22475
-0.00979763
-1.00503
-0.00845266
-0.836801
-0.00732516
-0.711249
-0.00634148
-0.6227
-0.00544553
-0.565918
-0.538815
-0.0045906
2.11909
-2227.93
1.739
-1844.67
1.44867
-1527.47
1.22992
-1264.85
1.06646
-1047.46
0.944876
-867.498
0.854445
-718.546
0.786853
-595.278
0.73573
-493.29
0.696233
-408.937
0.664675
-339.205
0.638234
-281.601
0.614705
-234.066
0.592317
-194.901
0.569582
-162.705
0.545182
-136.326
0.517874
-114.823
0.486418
-97.425
0.449515
-83.5107
0.405757
-72.5827
0.35361
-64.2505
0.291417
-58.2169
0.217517
-54.267
0.13057
-52.263
0.0311869
-51.955
-0.0368307
-41.5047
-0.0788415
-33.1713
-0.100314
-26.5241
-0.1065
-21.2197
-0.102338
-16.984
-0.0921215
-13.5996
-0.0792062
-10.8939
-0.0659249
-8.729
-0.053697
-6.99561
-0.0432051
-5.6069
-0.0346218
-4.49419
-0.0278194
-3.60305
-0.022531
-2.89021
-0.0184558
-2.32112
-0.0153188
-1.86814
-0.0128861
-1.50919
-0.0109747
-1.22666
-0.00943982
-1.00657
-0.00817271
-0.838068
-0.00709437
-0.712327
-0.00613973
-0.623655
-0.00525849
-0.566799
-0.539661
-0.00441213
2.26002
-2227.42
1.85874
-1844.27
1.55401
-1527.16
1.32621
-1264.63
1.15764
-1047.29
1.03367
-867.374
0.942682
-718.455
0.875637
-595.211
0.825646
-493.24
0.787496
-408.899
0.757241
-339.175
0.731872
-281.575
0.709051
-234.043
0.686904
-194.879
0.663858
-162.682
0.638516
-136.301
0.609551
-114.794
0.575627
-97.3911
0.535331
-83.4704
0.487118
-72.5345
0.429292
-64.1927
0.359999
-58.1477
0.277358
-54.1843
0.179787
-52.1655
0.0677569
-51.843
-0.00950645
-41.4274
-0.0580466
-33.1227
-0.08404
-26.4981
-0.0933636
-21.2103
-0.0914621
-16.9859
-0.08302
-13.6081
-0.0716378
-10.9052
-0.0597523
-8.74089
-0.0487941
-7.00657
-0.0394184
-5.61627
-0.0317753
-4.50183
-0.0257334
-3.6091
-0.0210375
-2.89491
-0.0174085
-2.32475
-0.0145962
-1.87095
-0.0123938
-1.5114
-0.0106379
-1.22842
-0.00920568
-1.008
-0.00799938
-0.839274
-0.00695562
-0.713371
-0.00601495
-0.624596
-0.00513608
-0.567678
-0.54051
-0.00428674
2.40944
-2226.87
1.98602
-1843.85
1.66639
-1526.84
1.42937
-1264.39
1.25575
-1047.12
1.12965
-867.248
1.03841
-718.364
0.972268
-595.145
0.923769
-493.192
0.887306
-408.862
0.858651
-339.146
0.834603
-281.551
0.81268
-234.021
0.790903