/*--------------------------------*- C++ -*----------------------------------*\
  =========                 |
  \\      /  F ield         | OpenFOAM: The Open Source CFD Toolbox
   \\    /   O peration     | Website:  https://openfoam.org
    \\  /    A nd           | Version:  10
     \\/     M anipulation  |
\*---------------------------------------------------------------------------*/
FoamFile
{
    format      ascii;
    class       volVectorField;
    location    "10";
    object      U;
}
// * * * * * * * * * * * * * * * * * * * * * * * * * * * * * * * * * * * * * //

dimensions      [0 1 -1 0 0 0 0];

internalField   nonuniform List<vector> 
38016
(
(94.0908 -0.00421538 3.37728e-25)
(94.0892 -0.000297449 1.00695e-25)
(94.0915 -0.0011253 -1.21619e-25)
(94.0925 -0.0004727 0)
(94.0937 -0.000437283 0)
(94.0951 -0.000331718 0)
(94.0966 -0.000275229 -9.85239e-26)
(94.0984 -0.000221217 -9.26816e-22)
(94.1006 -0.000146914 1.02964e-25)
(94.1032 -3.70916e-05 -1.24206e-25)
(94.1062 0.000163328 -2.18779e-22)
(94.1098 0.000505649 -2.89606e-26)
(94.1138 0.00106212 -8.80893e-23)
(94.1183 0.00194869 -7.17546e-23)
(94.1231 0.00328601 2.85058e-23)
(94.1279 0.00524713 0)
(94.1323 0.0080042 0)
(94.1357 0.0118321 0)
(94.1373 0.0170764 2.18862e-25)
(94.1358 0.0241788 -2.51514e-25)
(94.1293 0.0342612 1.42331e-22)
(94.115 0.0480813 -2.64567e-22)
(94.0875 0.0688535 4.15007e-22)
(94.039 0.0994615 -2.23247e-24)
(93.949 0.14744 5.93442e-22)
(93.8035 0.22006 -3.47671e-27)
(93.6033 0.313121 -2.91677e-23)
(93.3504 0.423863 1.74422e-24)
(93.052 0.55108 7.27004e-27)
(92.7187 0.692155 0)
(92.3616 0.84672 1.31506e-26)
(91.991 1.01512 2.61326e-23)
(91.6151 1.19799 -1.19663e-21)
(91.2401 1.39553 0)
(90.8712 1.60718 0)
(90.5125 1.83109 0)
(90.1671 2.06435 0)
(89.838 2.30289 -4.92885e-22)
(89.5269 2.54229 -3.55417e-22)
(89.2354 2.77821 -3.68067e-23)
(88.9644 3.0068 -4.28296e-23)
(88.7139 3.22515 1.18674e-21)
(88.4827 3.43046 -2.60444e-22)
(88.2646 3.629 3.27989e-22)
(88.0587 3.79495 0)
(87.8433 3.98233 0)
(87.6267 4.10977 -2.15832e-21)
(87.3244 4.27541 1.97587e-21)
(94.0908 -0.00429743 -2.24942e-20)
(94.0892 -0.000324765 4.08236e-25)
(94.0915 -0.0011721 1.10609e-20)
(94.0925 -0.000513416 0)
(94.0937 -0.000482631 0)
(94.0951 -0.000381044 -3.27562e-21)
(94.0966 -0.000330439 6.30156e-27)
(94.0984 -0.000283701 9.2695e-22)
(94.1006 -0.000218294 -9.8818e-22)
(94.1032 -0.000118633 -5.14376e-26)
(94.1062 7.06646e-05 -2.4543e-22)
(94.1098 0.00040171 -4.41509e-26)
(94.1138 0.000948672 8.80483e-23)
(94.1183 0.00183037 7.1731e-23)
(94.1231 0.00317225 -2.84768e-23)
(94.1279 0.00515534 6.25908e-23)
(94.1323 0.00796336 -2.76129e-24)
(94.1357 0.0118906 1.60341e-25)
(94.1373 0.0173121 2.34313e-25)
(94.1359 0.0247191 -4.84035e-25)
(94.1295 0.035328 -4.25247e-22)
(94.1154 0.0500349 7.96642e-22)
(94.0881 0.0723734 -4.16898e-22)
(94.0403 0.105767 -1.15725e-21)
(93.9505 0.158971 6.29861e-22)
(93.8052 0.240394 3.40284e-25)
(93.6054 0.345866 2.60237e-23)
(93.3532 0.472626 7.01774e-22)
(93.0557 0.619296 -9.41235e-22)
(92.7235 0.782907 0)
(92.3678 0.962838 0)
(91.9989 1.15928 1.46307e-21)
(91.625 1.37278 1.16333e-21)
(91.2525 1.60343 -1.80908e-21)
(90.8867 1.8504 0)
(90.5316 2.11147 1.98127e-21)
(90.1907 2.38316 0)
(89.8666 2.66078 4.92411e-22)
(89.5611 2.93923 -7.17821e-22)
(89.2757 3.21348 8.93301e-22)
(89.0111 3.47921 -1.24264e-21)
(88.7673 3.7331 -4.0386e-22)
(88.5429 3.97199 -2.65141e-22)
(88.3305 4.20414 3.33994e-22)
(88.133 4.39855 0)
(87.9192 4.61683 0)
(87.708 4.78325 -1.65409e-21)
(87.4068 4.98037 2.00669e-21)
(94.0908 -0.00438341 -2.55168e-22)
(94.0892 -0.000352423 0)
(94.0915 -0.00122009 -2.22639e-20)
(94.0925 -0.000554702 0)
(94.0937 -0.000528587 0)
(94.0951 -0.000430933 3.27561e-21)
(94.0966 -0.000386234 -5.15648e-26)
(94.0984 -0.000346813 7.58121e-26)
(94.1006 -0.000290349 9.88182e-22)
(94.1032 -0.000200903 -5.40216e-26)
(94.1062 -2.27357e-05 4.64434e-22)
(94.1098 0.000297116 4.77868e-22)
(94.1138 0.000834801 -4.4596e-22)
(94.1183 0.00171213 -1.88285e-25)
(94.1231 0.00305947 9.75589e-26)
(94.1279 0.00506604 -6.25693e-23)
(94.1324 0.0079273 2.70973e-24)
(94.1358 0.0119572 -1.08228e-25)
(94.1374 0.0175609 1.65416e-25)
(94.136 0.0252789 0)
(94.1297 0.0364235 8.44623e-22)
(94.1157 0.0520302 -5.32007e-22)
(94.0887 0.0759491 8.56093e-22)
(94.0411 0.112152 2.33342e-21)
(93.9516 0.170613 3.60148e-23)
(93.8067 0.260891 0)
(93.6076 0.378861 4.6915e-23)
(93.3563 0.521763 -6.95409e-22)
(93.06 0.688057 9.35226e-22)
(92.7295 0.874401 0)
(92.3759 1.07991 6.47655e-23)
(92.0096 1.30459 1.28734e-21)
(91.639 1.5489 2.98504e-22)
(91.2707 1.81278 1.34727e-21)
(90.9097 2.09512 -2.40938e-21)
(90.5604 2.39327 -1.97726e-21)
(90.2262 2.7032 0)
(89.9096 3.01954 -1.99684e-21)
(89.6125 3.33653 7.21196e-22)
(89.3361 3.64851 -8.96942e-22)
(89.081 3.95065 2.52552e-21)
(88.847 4.23924 -1.58324e-21)
(88.6327 4.51102 2.67985e-21)
(88.4293 4.77534 -5.35386e-22)
(88.2441 4.99894 1.30015e-22)
(88.0359 5.24533 -4.66323e-21)
(87.8322 5.45238 1.68829e-24)
(87.5397 5.68458 -4.21947e-21)
(94.0908 -0.00447356 6.87527e-20)
(94.0892 -0.000380505 0)
(94.0915 -0.0012693 1.12014e-20)
(94.0925 -0.000596661 1.40598e-24)
(94.0937 -0.000575227 1.22515e-20)
(94.0951 -0.000481478 -1.94858e-25)
(94.0966 -0.000442718 -3.7307e-21)
(94.0984 -0.000410673 0)
(94.1006 -0.000363228 -2.09792e-21)
(94.1032 -0.000284064 0)
(94.1062 -0.000117056 1.03588e-21)
(94.1098 0.000191662 -4.78005e-22)
(94.1138 0.000720326 4.45948e-22)
(94.1183 0.00159384 1.21649e-25)
(94.1231 0.00294766 2.39708e-22)
(94.1279 0.00497949 2.33821e-22)
(94.1324 0.00789678 2.38941e-26)
(94.1359 0.0120337 -2.81415e-26)
(94.1375 0.0178261 0)
(94.1362 0.025865 6.113e-22)
(94.13 0.0375602 -1.11914e-21)
(94.1161 0.0540919 1.07438e-21)
(94.0893 0.0796284 -2.58659e-21)
(94.042 0.118712 -1.18328e-21)
(93.9531 0.182553 -1.24949e-21)
(93.8091 0.281913 -1.77814e-24)
(93.6111 0.412736 -3.19293e-23)
(93.3611 0.572278 -1.34225e-21)
(93.0664 0.758847 1.86595e-21)
(92.7378 0.968714 0)
(92.3867 1.20071 0)
(92.0237 1.45467 7.38053e-24)
(91.6572 1.73092 -2.3589e-21)
(91.2941 2.02922 0)
(90.9396 2.34816 2.71987e-21)
(90.5981 2.68462 0)
(90.2732 3.03397 0)
(89.9673 3.39017 1.99053e-21)
(89.6821 3.74675 -1.30653e-21)
(89.4189 4.09746 -1.87341e-21)
(89.1778 4.43693 2.40066e-21)
(88.9586 4.76105 1.62225e-21)
(88.7593 5.06693 4.29328e-21)
(88.5709 5.36299 -5.13022e-21)
(88.4032 5.61842 0)
(88.2086 5.89277 3.33518e-24)
(88.0221 6.14074 -9.25442e-21)
(87.7525 6.41273 9.16881e-21)
(94.0908 -0.00456805 -4.60064e-20)
(94.0892 -0.000409065 -1.69846e-24)
(94.0916 -0.00131983 2.29709e-20)
(94.0925 -0.000639387 -1.00878e-20)
(94.0937 -0.000622648 -1.22516e-20)
(94.0951 -0.000532788 -6.89642e-21)
(94.0966 -0.000500015 -3.87507e-21)
(94.0984 -0.000475425 0)
(94.1006 -0.000437097 2.09799e-21)
(94.1032 -0.000368303 -3.57353e-26)
(94.1062 -0.000212489 -1.03567e-21)
(94.1098 8.51715e-05 -1.41397e-25)
(94.1138 0.000605137 0)
(94.1183 0.00147556 1.14425e-25)
(94.1231 0.00283722 -2.39844e-22)
(94.128 0.00489675 -2.33818e-22)
(94.1325 0.00787404 -9.66937e-23)
(94.136 0.0121244 -3.54853e-23)
(94.1377 0.0181155 0)
(94.1364 0.0264915 -1.20433e-21)
(94.1303 0.0387624 5.57414e-22)
(94.1165 0.0562622 -1.07693e-21)
(94.0899 0.0834898 3.49211e-21)
(94.0428 0.125581 4.91931e-24)
(93.9547 0.195049 -4.94135e-24)
(93.8117 0.303919 -1.99771e-24)
(93.6151 0.448232 9.04624e-24)
(93.3668 0.62527 1.34754e-21)
(93.0742 0.833194 -1.76624e-23)
(92.7483 1.06786 0)
(92.4005 1.32782 -1.29756e-22)
(92.0417 1.61267 -2.775e-21)
(91.6807 1.9226 2.35625e-21)
(91.3244 2.25714 0)
(90.9784 2.61451 0)
(90.6472 2.99106 -3.98651e-21)
(90.3344 3.38147 1.51845e-21)
(90.0426 3.77899 -1.8977e-21)
(89.7733 4.1764 -1.35744e-22)
(89.5274 4.56676 3.56859e-21)
(89.305 4.94418 -2.45931e-21)
(89.1054 5.30414 -3.2209e-21)
(88.9262 5.64433 -8.50081e-21)
(88.7593 5.97056 1.14462e-20)
(88.6137 6.25902 1.28736e-20)
(88.4416 6.55968 -1.45737e-20)
(88.2824 6.8453 -1.04614e-21)
(88.0501 7.15422 -1.14121e-21)
(94.0908 -0.00466699 0)
(94.0892 -0.000438129 0)
(94.0916 -0.00137181 -2.29677e-20)
(94.0925 -0.000682947 1.00864e-20)
(94.0937 -0.000670935 0)
(94.0951 -0.000584949 6.89647e-21)
(94.0966 -0.000558223 7.60632e-21)
(94.0984 -0.000541181 -2.65711e-25)
(94.1006 -0.000512079 0)
(94.1032 -0.000453758 0)
(94.1062 -0.000309179 -2.28605e-21)
(94.1098 -2.24816e-05 0)
(94.1138 0.000489164 0)
(94.1183 0.00135737 -6.06096e-22)
(94.1232 0.00272856 -6.48199e-22)
(94.128 0.00481878 3.42839e-22)
(94.1325 0.00786109 9.66506e-23)
(94.136 0.012233 3.03064e-23)
(94.1378 0.0184358 2.00121e-25)
(94.1366 0.0271699 5.915e-22)
(94.1306 0.0400504 -1.09538e-21)
(94.117 0.0585738 0)
(94.0906 0.0875887 -1.75676e-21)
(94.044 0.13286 0)
(93.9566 0.208277 0)
(93.8147 0.327205 2.22972e-24)
(93.6197 0.485803 -1.52652e-22)
(93.3735 0.681381 -1.26036e-21)
(93.0836 0.911943 -1.84674e-21)
(92.7611 1.1729 0)
(92.4176 1.46247 -3.34212e-21)
(92.0641 1.77998 -1.62801e-22)
(91.7099 2.12541 -5.04681e-21)
(91.3623 2.49797 -2.719e-21)
(91.027 2.89544 -1.3773e-21)
(90.7089 3.31351 8.88814e-21)
(90.4115 3.74607 -1.51351e-21)
(90.1374 4.18552 1.89095e-21)
(89.888 4.6238 2.71794e-21)
(89.664 5.05326 -5.67826e-21)
(89.4649 5.4674 7.18842e-21)
(89.2898 5.86129 6.58976e-21)
(89.1358 6.23324 -1.00095e-20)
(88.996 6.58551 -1.28673e-21)
(88.8769 6.90438 1.26711e-20)
(88.7352 7.22531 -1.34372e-20)
(88.6106 7.5411 1.04314e-21)
(88.4258 7.87529 1.13799e-21)
(94.0908 -0.00477051 -5.84812e-24)
(94.0892 -0.000467734 0)
(94.0916 -0.00142533 2.35375e-20)
(94.0925 -0.000727401 -2.92356e-24)
(94.0937 -0.000720169 1.48264e-24)
(94.0951 -0.000638047 -2.61292e-24)
(94.0966 -0.00061744 -7.89415e-21)
(94.0984 -0.000608054 8.55129e-21)
(94.1006 -0.000588308 0)
(94.1032 -0.00054058 -4.72901e-21)
(94.1062 -0.000407298 2.28615e-21)
(94.1098 -0.000131478 1.34296e-25)
(94.1138 0.000372238 -1.61552e-25)
(94.1184 0.00123918 6.06114e-22)
(94.1232 0.00262175 6.48056e-22)
(94.1281 0.00474603 -3.42507e-22)
(94.1326 0.00785906 -1.75932e-25)
(94.1361 0.0123619 5.19146e-24)
(94.1379 0.0187914 -1.56141e-25)
(94.1368 0.0279074 0)
(94.1309 0.0414369 1.10014e-21)
(94.1174 0.0610475 2.17453e-21)
(94.0914 0.0919598 0)
(94.0452 0.140604 0)
(93.9586 0.222326 -9.19875e-24)
(93.8181 0.351914 1.1539e-23)
(93.6251 0.525656 1.25966e-22)
(93.3814 0.740893 1.26001e-21)
(93.0947 0.995445 3.88405e-23)
(92.7762 1.28423 -1.23061e-22)
(92.4379 1.60506 3.6921e-21)
(92.091 1.95694 -5.80218e-21)
(91.7453 2.33955 4.44392e-21)
(91.4083 2.75167 7.26575e-21)
(91.0862 3.19047 0)
(90.784 3.65086 -3.96885e-21)
(90.5054 4.12578 -1.50411e-21)
(90.2529 4.60665 5.80511e-21)
(90.0275 5.08446 -5.40043e-21)
(89.8297 5.55075 3.62066e-21)
(89.6584 5.99837 0)
(89.5123 6.42202 1.58154e-21)
(89.3878 6.82054 3.27975e-23)
(89.2793 7.19238 -1.02493e-20)
(89.1902 7.53583 2.58772e-20)
(89.084 7.86771 4.87873e-22)
(88.9974 8.20392 -1.5906e-20)
(88.8647 8.54777 2.16426e-21)
(94.0908 -0.00487874 9.60702e-20)
(94.0892 -0.000497906 -1.57996e-20)
(94.0916 -0.00148048 2.40956e-20)
(94.0925 -0.00077281 2.10053e-20)
(94.0937 -0.000770424 5.24852e-26)
(94.0951 -0.000692164 1.818e-24)
(94.0966 -0.000677761 1.59345e-20)
(94.0984 -0.000676157 -8.55171e-21)
(94.1006 -0.000665918 1.6788e-25)
(94.1032 -0.00062893 4.72933e-21)
(94.1062 -0.000507032 0)
(94.1098 -0.000242026 -2.62417e-21)
(94.1139 0.000254145 -1.5085e-25)
(94.1184 0.00112081 1.81132e-25)
(94.1232 0.00251673 1.80761e-25)
(94.1281 0.00467868 9.04051e-22)
(94.1326 0.00786858 1.10372e-25)
(94.1362 0.0125124 -1.29986e-25)
(94.1381 0.019185 0)
(94.137 0.0287088 0)
(94.1312 0.0429298 0)
(94.118 0.0636959 -2.18331e-21)
(94.0922 0.096623 -2.53054e-24)
(94.0466 0.148845 2.59756e-21)
(93.961 0.237247 0)
(93.8221 0.378121 0)
(93.6314 0.567898 0)
(93.3908 0.803943 1.15955e-21)
(93.1079 1.08386 -3.53747e-21)
(92.7943 1.40202 3.8894e-21)
(92.4621 1.75575 2.99073e-21)
(92.1233 2.14362 6.59141e-21)
(91.7877 2.5649 4.14561e-21)
(91.4635 3.0178 -3.62435e-21)
(91.1572 3.49873 0)
(90.874 4.00161 0)
(90.6176 4.51826 -2.5919e-21)
(90.3903 5.03897 -3.76004e-21)
(90.1929 5.55368 2.68251e-21)
(90.0252 6.05306 -3.61098e-21)
(89.8857 6.52932 9.79892e-21)
(89.772 6.97683 -2.46887e-20)
(89.6801 7.39498 1.73643e-20)
(89.6052 7.77847 0)
(89.5474 8.13873 -2.41904e-20)
(89.4786 8.47091 2.73716e-20)
(89.4298 8.81718 1.92833e-21)
(89.3491 9.1551 -2.1587e-21)
(94.0908 -0.00499185 -1.93179e-19)
(94.0893 -0.000528692 1.58083e-20)
(94.0916 -0.00153735 -4.76318e-20)
(94.0925 -0.000819244 -2.1007e-20)
(94.0937 -0.000821779 0)
(94.0951 -0.000747387 8.51251e-25)
(94.0966 -0.000739289 8.32728e-21)
(94.0984 -0.000745613 0)
(94.1006 -0.000745058 -9.60995e-21)
(94.1032 -0.000718986 0)
(94.1062 -0.00060859 7.25663e-26)
(94.1098 -0.000354363 2.62422e-21)
(94.1139 0.000134629 0)
(94.1184 0.00100202 0)
(94.1232 0.00241335 2.02395e-25)
(94.1281 0.00461679 -9.04745e-22)
(94.1327 0.00789013 2.41459e-25)
(94.1363 0.0126859 -2.54681e-22)
(94.1382 0.0196189 0)
(94.1372 0.0295784 0)
(94.1316 0.0445364 0)
(94.1186 0.0665308 5.55632e-24)
(94.0932 0.101597 -5.94798e-24)
(94.0481 0.15761 -2.58872e-21)
(93.9637 0.253083 0)
(93.8267 0.40589 0)
(93.6387 0.612617 -4.00172e-22)
(93.4016 0.870642 -2.25186e-21)
(93.1233 1.17731 6.91631e-23)
(92.8156 1.52637 -3.73991e-21)
(92.4908 1.91458 -3.43098e-21)
(92.1615 2.33996 5.77578e-21)
(91.838 2.80119 -4.67001e-21)
(91.5289 3.29575 0)
(91.2412 3.8191 0)
(90.9801 4.36395 9.84474e-21)
(90.7495 4.92081 -2.55379e-21)
(90.5512 5.47873 -3.86938e-21)
(90.3856 6.02649 5.19961e-21)
(90.2516 6.55388 3.48189e-21)
(90.1467 7.05259 -9.5687e-21)
(90.0678 7.51677 1.17342e-20)
(90.0101 7.94656 0)
(89.9689 8.33309 0)
(89.9419 8.70167 -4.28666e-21)
(89.9092 9.02378 0)
(89.8949 9.37069 -3.77782e-21)
(89.8618 9.68948 0)
(94.0908 -0.00511 9.70902e-20)
(94.0893 -0.000560122 0)
(94.0916 -0.00159603 -4.87709e-20)
(94.0925 -0.000866766 -2.15561e-20)
(94.0937 -0.000874311 -2.66839e-20)
(94.0951 -0.000803804 -1.73129e-24)
(94.0966 -0.000802127 -3.30222e-20)
(94.0984 -0.000816546 -1.67015e-24)
(94.1006 -0.000825876 9.61056e-21)
(94.1032 -0.000810931 3.32958e-25)
(94.1062 -0.000712182 5.43225e-21)
(94.1098 -0.000468731 0)
(94.1139 1.34285e-05 0)
(94.1184 0.000882554 0)
(94.1233 0.00231145 -9.86796e-22)
(94.1282 0.00456045 1.12351e-21)
(94.1328 0.00792424 -5.37722e-22)
(94.1364 0.0128836 2.5467e-22)
(94.1384 0.0200958 2.32883e-26)
(94.1375 0.0305208 0)
(94.132 0.0462644 -3.04581e-24)
(94.1192 0.0695641 3.3549e-24)
(94.0942 0.106899 0)
(94.0499 0.166928 5.37432e-21)
(93.9667 0.269876 -1.03179e-23)
(93.8319 0.435284 1.29406e-23)
(93.647 0.659897 3.9344e-22)
(93.4142 0.941089 6.44562e-23)
(93.1413 1.2759 3.39091e-21)
(92.8404 1.65738 3.7376e-21)
(92.5245 2.08156 2.53055e-22)
(92.2063 2.54578 -6.08844e-21)
(91.897 3.04799 0)
(91.6056 3.58469 0)
(91.3394 4.15014 -5.26802e-21)
(91.1039 4.73568 -7.73606e-21)
(90.9025 5.33032 5.48303e-21)
(90.7368 5.92171 3.73661e-21)
(90.6061 6.4975 -1.09294e-22)
(90.5084 7.04669 -6.86183e-21)
(90.4401 7.56062 9.29429e-21)
(90.3967 8.03348 5.56174e-22)
(90.3727 8.46655 -1.08735e-20)
(90.3635 8.84757 -2.25207e-21)
(90.3646 9.21636 2.82131e-21)
(90.364 9.51941 -2.61836e-20)
(90.3786 9.85942 5.98099e-20)
(90.3863 10.1494 -3.08208e-20)
(94.0908 -0.00523333 -7.1321e-24)
(94.0893 -0.000592242 -3.29513e-20)
(94.0916 -0.00165659 9.8103e-20)
(94.0925 -0.00091545 2.15601e-20)
(94.0937 -0.000928101 2.66863e-20)
(94.0951 -0.000861507 1.90081e-24)
(94.0966 -0.000866383 1.66567e-20)
(94.0984 -0.000889085 1.17454e-24)
(94.1006 -0.00090853 -2.8382e-25)
(94.1032 -0.000904955 3.42391e-25)
(94.1062 -0.000818033 2.15115e-22)
(94.1098 -0.000585386 5.98626e-27)
(94.1139 -0.000109733 0)
(94.1184 0.000762169 -1.85415e-21)
(94.1233 0.00221089 9.86601e-22)
(94.1282 0.00450974 -1.12334e-21)
(94.1328 0.00797147 5.37478e-22)
(94.1365 0.0131068 4.18646e-22)
(94.1385 0.0206184 -5.15582e-25)
(94.1378 0.0315408 -8.30666e-25)
(94.1324 0.0481217 -1.44008e-24)
(94.1199 0.0728089 -2.20698e-21)
(94.0954 0.112551 -6.06465e-24)
(94.0518 0.176829 -5.37432e-21)
(93.9702 0.287671 0)
(93.8378 0.466361 7.21807e-24)
(93.6566 0.70981 -9.05596e-24)
(93.4287 1.01536 -9.23289e-22)
(93.1622 1.3797 3.77655e-23)
(92.8694 1.79503 -6.2251e-23)
(92.5637 2.25659 6.63533e-21)
(92.2586 2.76079 -6.0523e-21)
(91.9657 3.30465 5.14723e-22)
(91.6947 3.88348 -7.93646e-21)
(91.453 4.49009 6.47357e-21)
(91.2463 5.1142 0)
(91.0775 5.74319 0)
(90.9473 6.3633 3.55696e-21)
(90.8541 6.96109 -4.78999e-21)
(90.7943 7.52498 5.29374e-22)
(90.763 8.04632 -2.1782e-20)
(90.7543 8.51969 1.1011e-20)
(90.7616 8.94797 -3.6281e-21)
(90.7809 9.31577 2.24692e-21)
(90.8055 9.67778 2.15242e-20)
(90.8315 9.95492 -2.43943e-20)
(90.8682 10.2828 0)
(90.9088 10.5377 -2.99188e-20)
(94.0908 -0.00536203 -2.00242e-19)
(94.0893 -0.000625085 -3.38634e-20)
(94.0916 -0.00171912 -4.93329e-20)
(94.0925 -0.000965361 4.42288e-20)
(94.0937 -0.00098323 -3.28749e-24)
(94.0951 -0.000920585 -3.08135e-20)
(94.0966 -0.000932163 0)
(94.0984 -0.000963358 1.89959e-20)
(94.1006 -0.000993177 1.03439e-20)
(94.1032 -0.00100125 5.52939e-21)
(94.1062 -0.000926376 -1.15108e-20)
(94.1098 -0.000704594 -4.99846e-26)
(94.1139 -0.000235137 0)
(94.1184 0.000640591 3.83753e-21)
(94.1233 0.00211148 2.31298e-21)
(94.1283 0.00446472 1.3429e-21)
(94.1329 0.00803238 -3.40107e-25)
(94.1367 0.0133571 -4.18676e-22)
(94.1387 0.0211896 0)
(94.1381 0.0326436 -1.39625e-24)
(94.1329 0.0501169 1.5747e-24)
(94.1207 0.0762782 2.21039e-21)
(94.0967 0.118572 6.12347e-24)
(94.054 0.187341 -1.16414e-23)
(93.9741 0.306507 3.26554e-21)
(93.8446 0.499175 3.28475e-21)
(93.6676 0.762415 -7.00581e-22)
(93.4454 1.09351 3.69922e-21)
(93.1863 1.48872 1.43061e-22)
(92.9028 1.93929 -3.47671e-21)
(92.609 2.43945 -6.98248e-21)
(92.319 2.98452 8.72058e-23)
(92.045 3.57033 8.90398e-21)
(91.7971 4.19072 6.95752e-21)
(91.5831 4.83683 -2.78037e-21)
(91.4083 5.49655 1.47441e-20)
(91.2749 6.15554 5.69734e-21)
(91.1827 6.79869 -7.07079e-21)
(91.1284 7.41166 4.91969e-21)
(91.1069 7.98269 1.02345e-20)
(91.1114 8.50353 -2.9368e-20)
(91.1349 8.96961 2.11565e-20)
(91.1697 9.38596 -2.77181e-20)
(91.2125 9.73417 6.93655e-20)
(91.2551 10.0841 -3.99438e-20)
(91.3012 10.3307 0)
(91.3532 10.6433 -5.61308e-20)
(91.4186 10.8602 5.72436e-20)
(94.0908 -0.00549625 2.00247e-19)
(94.0893 -0.000658699 1.00697e-19)
(94.0916 -0.00178372 -5.04767e-20)
(94.0925 -0.00101657 -8.90016e-20)
(94.0937 -0.00103978 0)
(94.0951 -0.000981133 3.08146e-20)
(94.0966 -0.000999581 0)
(94.0984 -0.0010395 -1.89965e-20)
(94.1006 -0.00107998 -1.03437e-20)
(94.1032 -0.00110002 -5.53031e-21)
(94.1062 -0.00103746 1.19418e-20)
(94.1098 -0.000826629 3.33933e-21)
(94.1139 -0.000363084 -3.6835e-21)
(94.1184 0.000517536 -1.9832e-21)
(94.1233 0.00201304 -2.3129e-21)
(94.1283 0.00442546 -1.34308e-21)
(94.133 0.00810754 0)
(94.1368 0.0136359 0)
(94.1389 0.0218123 4.40698e-25)
(94.1384 0.0338343 8.84204e-22)
(94.1334 0.0522587 -2.05763e-21)
(94.1216 0.0799857 0)
(94.0981 0.124981 0)
(94.0565 0.198494 0)
(93.9784 0.326425 -6.57972e-21)
(93.8523 0.53377 -6.79391e-21)
(93.6801 0.817755 7.20232e-22)
(93.4645 1.17556 -1.77014e-21)
(93.2139 1.60292 0)
(92.9412 2.09 0)
(92.6612 2.62981 -4.83435e-22)
(92.3884 3.21633 6.15058e-21)
(92.1358 3.84393 -8.89308e-21)
(91.9139 4.50472 1.86185e-21)
(91.7305 5.1879 -7.27533e-21)
(91.5904 5.87943 -7.29353e-21)
(91.4949 6.56325 -1.51976e-22)
(91.4421 7.22303 -7.04711e-21)
(91.4271 7.84393 0)
(91.4427 8.41444 2.50792e-20)
(91.4805 8.92727 -1.96477e-20)
(91.5321 9.37919 0)
(91.5894 9.77777 0)
(91.6501 10.1017 -2.04821e-21)
(91.7048 10.4358 0)
(91.7647 10.6494 -2.70048e-21)
(91.8255 10.9454 3.18302e-21)
(91.9087 11.1238 -1.70038e-21)
(94.0908 -0.00563617 -2.04273e-19)
(94.0893 -0.000693117 4.56958e-22)
(94.0916 -0.00185047 -5.15971e-20)
(94.0925 -0.00106916 9.0123e-20)
(94.0937 -0.00109784 -2.81455e-20)
(94.0951 -0.00104325 -3.9675e-24)
(94.0966 -0.00106875 0)
(94.0984 -0.00111765 1.13208e-24)
(94.1006 -0.00116912 -1.36627e-24)
(94.1032 -0.00120148 0)
(94.1062 -0.00115154 2.15309e-22)
(94.1098 -0.000951785 -3.33955e-21)
(94.1139 -0.000493885 3.6838e-21)
(94.1185 0.000392715 -4.48105e-21)
(94.1234 0.00191537 0)
(94.1284 0.00439202 0)
(94.1331 0.0081975 0)
(94.1369 0.0139447 0)
(94.1392 0.0224895 -4.03096e-25)
(94.1387 0.0351182 -8.84356e-22)
(94.134 0.0545556 4.09513e-21)
(94.1225 0.0839447 5.83209e-24)
(94.0997 0.1318 -6.24289e-24)
(94.0592 0.210314 5.79468e-21)
(93.9833 0.347457 3.34917e-21)
(93.8609 0.570182 7.10214e-21)
(93.6943 0.875854 4.06579e-24)
(93.4862 1.2615 -5.10105e-24)
(93.2454 1.72223 2.92456e-21)
(92.9852 2.24693 0)
(92.7208 2.8272 0)
(92.4676 3.4554 -6.07996e-21)
(92.239 4.12413 9.72072e-22)
(92.0459 4.82351 -1.81254e-21)
(91.8958 5.5406 1.67932e-20)
(91.7928 6.25935 -6.86228e-21)
(91.7368 6.96212 -4.96088e-21)
(91.724 7.63168 6.95597e-21)
(91.7473 8.25315 -2.22845e-20)
(91.7976 8.81584 -1.24336e-20)
(91.8648 9.31399 3.24517e-21)
(91.9397 9.74609 4.38605e-20)
(92.0139 10.1226 -2.41811e-20)
(92.0866 10.419 3.42397e-20)
(92.1476 10.7353 -3.57783e-20)
(92.2153 10.9151 -3.69914e-20)
(92.2796 11.1946 4.60644e-20)
(92.3745 11.3354 0)
(94.0908 -0.00578196 4.1055e-19)
(94.0893 -0.000728388 -6.90862e-20)
(94.0916 -0.00191947 1.02052e-19)
(94.0925 -0.00112319 5.52809e-22)
(94.0937 -0.00115749 2.81467e-20)
(94.0951 -0.00110702 7.77379e-24)
(94.0966 -0.00113978 -4.529e-24)
(94.0984 -0.00119796 2.0135e-20)
(94.1006 -0.00126076 1.26055e-24)
(94.1032 -0.00130583 -1.52069e-24)
(94.1062 -0.00126889 -6.29458e-21)
(94.1098 -0.00108039 3.46019e-25)
(94.1139 -0.000627863 -4.06474e-21)
(94.1185 0.000265821 -2.57205e-22)
(94.1234 0.00181827 2.82291e-21)
(94.1284 0.00436443 3.7002e-25)
(94.1332 0.0083028 -4.3908e-25)
(94.1371 0.0142849 0)
(94.1394 0.0232239 -3.65438e-25)
(94.1391 0.0365003 -8.95016e-25)
(94.1346 0.057016 -2.03609e-21)
(94.1236 0.0881682 0)
(94.1015 0.139047 4.00749e-21)
(94.0623 0.222828 -1.1677e-20)
(93.9888 0.369633 -2.51461e-23)
(93.8707 0.608435 -3.63779e-21)
(93.7104 0.936708 1.12428e-21)
(93.5109 1.35126 4.84377e-23)
(93.2814 1.84646 -3.45937e-22)
(93.0353 2.40974 1.62623e-22)
(92.7886 3.031 4.59699e-22)
(92.5573 3.70068 9.87147e-21)
(92.3553 4.40934 -8.24038e-21)
(92.1936 5.14484 -1.75533e-21)
(92.0793 5.89196 -7.37438e-21)
(92.0152 6.63269 1.34402e-20)
(91.9994 7.34804 4.57999e-21)
(92.026 8.02035 0)
(92.0856 8.63529 2.11104e-22)
(92.167 9.1836 5.74228e-21)
(92.259 9.66152 0)
(92.3516 10.0696 -4.74591e-21)
(92.4369 10.4211 2.80129e-21)
(92.5159 10.6885 -3.65547e-21)
(92.578 10.9863 0)
(92.6484 11.1328 -2.53164e-21)
(92.7117 11.3966 0)
(92.8135 11.5017 0)
(94.0908 -0.0059338 -2.06293e-19)
(94.0893 -0.000764547 7.00432e-20)
(94.0916 -0.00199081 -1.04329e-19)
(94.0925 -0.00117874 4.69976e-20)
(94.0937 -0.00121881 0)
(94.095 -0.00117256 0)
(94.0966 -0.0012128 3.67977e-20)
(94.0984 -0.00128055 -2.01359e-20)
(94.1006 -0.00135509 0)
(94.1032 -0.00141332 -7.0247e-25)
(94.1062 -0.00138977 8.46927e-25)
(94.1098 -0.00121277 -7.53739e-21)
(94.1139 -0.000765363 4.06499e-21)
(94.1185 0.000136531 4.73893e-21)
(94.1234 0.00172156 1.69646e-22)
(94.1285 0.00434278 0)
(94.1333 0.00842402 0)
(94.1372 0.0146578 2.10647e-25)
(94.1397 0.0240185 -2.45502e-25)
(94.1395 0.0379854 1.54001e-21)
(94.1353 0.0596477 -1.45242e-24)
(94.1247 0.092668 0)
(94.1035 0.146738 -8.04827e-21)
(94.0657 0.236057 5.88784e-21)
(93.9949 0.392976 0)
(93.8816 0.648537 0)
(93.7285 1.00029 -1.12514e-21)
(93.5389 1.44474 -9.50622e-22)
(93.3221 1.97538 -2.7667e-21)
(93.092 2.57796 0)
(92.8652 3.24042 0)
(92.6582 3.95095 -1.74446e-22)
(92.4854 4.69776 1.04964e-20)
(92.3577 5.46626 -2.83922e-21)
(92.2811 6.23887 8.86187e-21)
(92.257 6.99582 -2.85726e-22)
(92.2812 7.71713 -1.39285e-20)
(92.3455 8.3853 5.77599e-21)
(92.4381 8.98719 -1.24609e-20)
(92.5463 9.51554 4.73117e-20)
(92.6576 9.96895 -2.66822e-20)
(92.7623 10.3501 0)
(92.8532 10.6752 -2.79523e-21)
(92.9335 10.9133 0)
(92.9921 11.1928 6.78103e-20)
(93.0611 11.3074 -7.24632e-20)
(93.12 11.5569 0)
(93.2249 11.6288 0)
(94.0908 -0.00609185 0)
(94.0894 -0.000801646 -3.52502e-20)
(94.0916 -0.00206458 -1.12606e-21)
(94.0925 -0.00123588 -9.29e-20)
(94.0937 -0.0012819 -5.84959e-20)
(94.095 -0.00123996 3.31318e-20)
(94.0966 -0.00128792 -3.67993e-20)
(94.0984 -0.0013656 -2.40851e-24)
(94.1006 -0.0014523 2.3135e-20)
(94.1032 -0.00152418 -1.26642e-20)
(94.1062 -0.00151449 -6.90078e-26)
(94.1098 -0.00134927 7.53661e-21)
(94.1139 -0.000906807 2.6278e-25)
(94.1185 4.53785e-06 5.25264e-21)
(94.1235 0.00162502 -2.99303e-21)
(94.1285 0.00432718 -3.78339e-21)
(94.1334 0.00856183 2.52581e-25)
(94.1374 0.0150651 0)
(94.1399 0.0248759 0)
(94.14 0.039578 -1.54035e-21)
(94.1361 0.0624578 1.42202e-24)
(94.126 0.0974541 1.20136e-23)
(94.1056 0.154889 4.04738e-21)
(94.0695 0.250018 6.13963e-21)
(94.0017 0.417499 -2.71295e-23)
(93.8939 0.690476 3.40035e-23)
(93.7489 1.06652 1.44713e-21)
(93.5705 1.54175 8.71089e-22)
(93.368 2.10863 1.00974e-22)
(93.1559 2.75099 2.41868e-21)
(92.9512 3.45449 6.15951e-21)
(92.7711 4.20475 -6.36616e-21)
(92.6299 4.98736 1.75747e-21)
(92.5382 5.7851 3.23292e-21)
(92.5008 6.57813 -1.2888e-20)
(92.5169 7.34517 -1.27606e-20)
(92.5801 8.06583 7.46326e-21)
(92.6794 8.72339 2.24329e-20)
(92.801 9.30655 0)
(92.9307 9.81052 -5.10259e-21)
(93.0559 10.2365 2.89217e-20)
(93.1673 10.5892 -2.78512e-20)
(93.2588 10.8874 -4.30881e-20)
(93.336 11.0968 4.87071e-20)
(93.3875 11.359 -3.82366e-21)
(93.4518 11.4435 0)
(93.5038 11.6804 2.2493e-21)
(93.6089 11.7219 8.19535e-20)
(94.0908 -0.00625632 0)
(94.0894 -0.00083972 0)
(94.0916 -0.00214089 1.05446e-19)
(94.0925 -0.0012947 4.75696e-20)
(94.0937 -0.00134685 5.84992e-20)
(94.095 -0.00130932 4.60669e-22)
(94.0966 -0.00136527 0)
(94.0984 -0.00145324 0)
(94.1006 -0.00155257 -2.31316e-20)
(94.1032 -0.00163864 -3.20506e-22)
(94.1062 -0.00164334 -1.43109e-20)
(94.1098 -0.00149027 -1.00084e-24)
(94.1139 -0.00105261 -4.63639e-21)
(94.1185 -0.000130588 2.56739e-22)
(94.1235 0.00152848 0)
(94.1286 0.00431773 -2.18735e-22)
(94.1335 0.00871698 1.57991e-25)
(94.1376 0.0155084 -2.65312e-25)
(94.1402 0.0257991 2.52699e-25)
(94.1405 0.0412826 -1.52451e-24)
(94.1369 0.0654524 1.39195e-24)
(94.1274 0.102535 -4.59333e-21)
(94.108 0.163508 4.17171e-21)
(94.0737 0.26472 1.46631e-22)
(94.0094 0.443201 3.8431e-21)
(93.9077 0.73422 4.43524e-21)
(93.7718 1.1353 1.9387e-22)
(93.6059 1.64207 -2.20127e-22)
(93.4196 2.24579 0)
(93.2276 2.9281 -5.62017e-21)
(93.0474 3.67206 -4.73621e-21)
(92.8965 4.46042 -1.02258e-21)
(92.7892 5.27588 7.22836e-21)
(92.7352 6.09856 -3.06939e-21)
(92.7376 6.90652 -4.12278e-21)
(92.7934 7.67742 -1.17081e-20)
(92.8935 8.39106 -8.86629e-21)
(93.0242 9.03219 4.80966e-21)
(93.1702 9.59195 1.44856e-20)
(93.3162 10.0683 -3.67112e-20)
(93.4499 10.465 2.00945e-20)
(93.563 10.7888 2.63432e-20)
(93.6507 11.0607 -2.9857e-20)
(93.7211 11.2426 -4.59052e-20)
(93.7628 11.4887 5.70211e-20)
(93.8198 11.5455 1.8694e-21)
(93.8631 11.7713 -2.24397e-21)
(93.9664 11.7852 -7.54168e-20)
(94.0908 -0.00642737 -2.14349e-19)
(94.0894 -0.000878822 3.48468e-23)
(94.0916 -0.00221982 -1.93995e-23)
(94.0925 -0.00135527 -1.43784e-19)
(94.0937 -0.00141374 5.99644e-20)
(94.095 -0.00138075 -3.35837e-20)
(94.0966 -0.00144497 -3.2261e-25)
(94.0984 -0.00154364 -2.91011e-24)
(94.1006 -0.00165612 -3.02279e-24)
(94.1032 -0.00175697 -3.204e-22)
(94.1062 -0.00177665 2.90542e-20)
(94.1098 -0.00163614 9.81233e-25)
(94.1139 -0.0012032 1.42886e-20)
(94.1185 -0.000269324 2.5687e-22)
(94.1235 0.00143162 4.16937e-27)
(94.1287 0.00431468 8.22302e-21)
(94.1336 0.00889021 -2.32525e-21)
(94.1378 0.0159895 0)
(94.1406 0.0267914 1.07711e-25)
(94.1411 0.043104 -1.23777e-25)
(94.1379 0.0686374 1.93884e-21)
(94.129 0.107915 -2.64697e-23)
(94.1107 0.172599 -4.16704e-21)
(94.0784 0.280161 -6.2642e-21)
(94.0178 0.470065 -7.85644e-21)
(93.9231 0.779708 -6.71296e-21)
(93.7975 1.20647 -3.5184e-21)
(93.6456 1.74537 2.48798e-22)
(93.4773 2.38628 2.02385e-22)
(93.3076 3.10837 2.46753e-21)
(93.1542 3.89181 -7.71874e-22)
(93.0348 4.71611 2.23423e-21)
(92.9634 5.56094 -6.84665e-21)
(92.9483 6.40379 -2.4491e-21)
(92.9906 7.22093 7.9445e-21)
(93.0847 7.98952 3.70884e-22)
(93.2187 8.69024 0)
(93.3767 9.30999 -4.76717e-21)
(93.5419 9.84276 0)
(93.699 10.2894 -1.72586e-20)
(93.8361 10.6562 -6.82648e-22)
(93.9464 10.9514 5.14809e-20)
(94.0268 11.1981 -3.4104e-20)
(94.0875 11.3542 -4.20555e-20)
(94.1173 11.5857 -4.07894e-21)
(94.1652 11.6169 5.48286e-20)
(94.1987 11.8333 0)
(94.2986 11.8221 6.66175e-20)
(94.0908 -0.00660521 4.30623e-19)
(94.0894 -0.000918991 0)
(94.0916 -0.00230148 -1.08847e-19)
(94.0925 -0.00141766 1.44901e-19)
(94.0937 -0.00148268 -5.9968e-20)
(94.095 -0.00145435 3.45067e-20)
(94.0966 -0.00152716 4.87798e-24)
(94.0984 -0.00163695 -2.20285e-20)
(94.1006 -0.00176313 -2.46308e-25)
(94.1031 -0.00187942 1.33003e-20)
(94.1062 -0.00191474 -1.47405e-20)
(94.1098 -0.0017873 0)
(94.1139 -0.00135904 -9.65206e-21)
(94.1185 -0.00041214 -5.76759e-21)
(94.1236 0.00133397 7.3408e-21)
(94.1287 0.00431791 -8.65893e-21)
(94.1337 0.00908276 -1.3846e-22)
(94.138 0.0165105 -2.27654e-26)
(94.1409 0.0278564 -1.80685e-26)
(94.1417 0.0450477 -1.23694e-21)
(94.1389 0.0720192 -3.8603e-21)
(94.1307 0.1136 4.6118e-21)
(94.1136 0.18216 -4.27027e-21)
(94.0836 0.296329 6.54536e-21)
(94.0273 0.498056 3.95826e-21)
(93.9402 0.826847 -1.20063e-22)
(93.826 1.27983 1.82166e-21)
(93.6898 1.85125 2.51994e-24)
(93.5416 2.52942 -6.06757e-23)
(93.3964 3.29077 -3.98746e-22)
(93.2722 4.11221 4.99568e-22)
(93.1866 4.96978 0)
(93.1525 5.84001 -8.17199e-21)
(93.1769 6.69792 7.06702e-21)
(93.2585 7.51841 0)
(93.3887 8.27881 5.20931e-21)
(93.5529 8.9614 -7.09628e-21)
(93.7335 9.55576 9.23754e-21)
(93.9128 10.059 0)
(94.0758 10.475 -1.57558e-20)
(94.2119 10.812 2.41845e-20)
(94.3157 11.0797 2.99027e-22)
(94.3858 11.3027 -4.07246e-21)
(94.4345 11.4347 0)
(94.4511 11.6533 -4.55061e-20)
(94.4883 11.6612 5.14967e-20)
(94.5115 11.8695 -5.72718e-20)
(94.607 11.8359 5.97634e-20)
(94.0908 -0.00679002 -2.16319e-19)
(94.0894 -0.00096028 0)
(94.0916 -0.00238597 2.18834e-19)
(94.0925 -0.00148197 -1.47126e-19)
(94.0937 -0.00155374 0)
(94.095 -0.00153023 4.60528e-22)
(94.0966 -0.00161195 -3.97098e-20)
(94.0984 -0.00173334 4.44469e-20)
(94.1006 -0.00187384 -3.38044e-24)
(94.1031 -0.00200628 -1.3946e-20)