/*--------------------------------*- C++ -*----------------------------------*\
  =========                 |
  \\      /  F ield         | OpenFOAM: The Open Source CFD Toolbox
   \\    /   O peration     | Website:  https://openfoam.org
    \\  /    A nd           | Version:  10
     \\/     M anipulation  |
\*---------------------------------------------------------------------------*/
FoamFile
{
    format      ascii;
    class       volScalarField;
    location    "5";
    object      k;
}
// * * * * * * * * * * * * * * * * * * * * * * * * * * * * * * * * * * * * * //

dimensions      [0 2 -2 0 0 0 0];

internalField   nonuniform List<scalar> 
38016
(
0.0575772
0.0636524
0.0701643
0.0771001
0.0844763
0.0923105
0.100618
0.109407
0.118672
0.128387
0.138501
0.148935
0.159582
0.170311
0.180973
0.191414
0.201483
0.21104
0.219973
0.228195
0.235649
0.242307
0.248177
0.253265
0.257638
0.261366
0.264543
0.267199
0.269434
0.27131
0.272887
0.274224
0.275369
0.276365
0.277243
0.278035
0.278766
0.279458
0.280125
0.280783
0.281444
0.282116
0.282801
0.283486
0.284143
0.28473
0.285187
0.285653
0.0574717
0.063506
0.0699913
0.0768989
0.0842441
0.0920438
0.100312
0.109057
0.118271
0.127928
0.137975
0.148334
0.158896
0.169526
0.180075
0.190382
0.200293
0.209664
0.218373
0.226324
0.233452
0.239718
0.245113
0.249631
0.25332
0.256373
0.258985
0.261176
0.263029
0.264594
0.265919
0.267053
0.268034
0.268899
0.269672
0.27038
0.271043
0.271677
0.272295
0.27291
0.273532
0.274167
0.274818
0.27547
0.276091
0.276638
0.277047
0.277475
0.0573382
0.0633295
0.0697862
0.0766633
0.0839754
0.0917383
0.0999656
0.108663
0.117823
0.127419
0.137398
0.147679
0.158151
0.16868
0.179113
0.189286
0.199039
0.208224
0.216712
0.224399
0.231212
0.237101
0.242046
0.24603
0.249087
0.251521
0.25362
0.255393
0.256904
0.258193
0.259296
0.260251
0.261091
0.261845
0.26253
0.263168
0.263776
0.264365
0.264946
0.265529
0.266123
0.266733
0.26736
0.267987
0.26858
0.26909
0.269453
0.26985
0.0571779
0.0631249
0.069552
0.0763975
0.0836752
0.0914001
0.0995845
0.108233
0.117338
0.126871
0.136778
0.146979
0.157361
0.167788
0.178104
0.188143
0.197741
0.206745
0.21502
0.222458
0.228974
0.234513
0.239045
0.242543
0.245034
0.246921
0.248571
0.249982
0.2512
0.252253
0.253167
0.253973
0.254695
0.255357
0.25597
0.256554
0.257117
0.257671
0.258222
0.258779
0.259348
0.259934
0.260536
0.261136
0.261699
0.26217
0.262479
0.262839
0.056991
0.0628924
0.0692886
0.0761013
0.0833432
0.0910283
0.0991681
0.107767
0.116814
0.126281
0.136114
0.146232
0.156521
0.166843
0.177041
0.186945
0.19639
0.205216
0.213285
0.220481
0.226717
0.231928
0.236077
0.239132
0.241113
0.242513
0.243769
0.244863
0.245826
0.246676
0.247428
0.248107
0.24873
0.249314
0.249867
0.250403
0.250929
0.251451
0.251975
0.252505
0.253048
0.253608
0.254183
0.254754
0.255283
0.255711
0.255951
0.256258
0.056778
0.0626316
0.0689951
0.0757729
0.0829768
0.0906199
0.0987124
0.107257
0.116244
0.125642
0.135398
0.145428
0.155619
0.165833
0.175907
0.185674
0.194962
0.203609
0.211472
0.218433
0.224396
0.229291
0.233077
0.235717
0.237226
0.238181
0.239079
0.239888
0.240624
0.241292
0.241902
0.242469
0.243004
0.24352
0.24402
0.244514
0.245005
0.245497
0.245993
0.246496
0.247011
0.247541
0.248085
0.248623
0.249116
0.249499
0.249665
0.249919
0.0565392
0.0623426
0.0686712
0.0754117
0.0825751
0.0901732
0.0982154
0.106704
0.115626
0.124951
0.134624
0.144562
0.154651
0.164749
0.174696
0.184319
0.193446
0.20191
0.209568
0.216292
0.221986
0.226575
0.230012
0.232257
0.233323
0.233867
0.234436
0.234984
0.235514
0.236019
0.2365
0.236967
0.237424
0.237879
0.238332
0.238788
0.239247
0.23971
0.240178
0.240654
0.24114
0.241641
0.242153
0.242658
0.243115
0.243456
0.243551
0.243773
0.0562755
0.062026
0.0683173
0.0750182
0.0821385
0.0896889
0.0976777
0.106106
0.11496
0.124208
0.133794
0.143635
0.153615
0.163592
0.173405
0.182879
0.19184
0.200119
0.207567
0.214057
0.219486
0.223776
0.226877
0.228747
0.229399
0.229561
0.229828
0.23014
0.230482
0.23084
0.231206
0.231584
0.231971
0.232373
0.232783
0.233204
0.233634
0.23407
0.234511
0.234959
0.235416
0.235887
0.236368
0.236841
0.237265
0.237569
0.2376
0.237813
0.0559875
0.0616825
0.0679346
0.0745935
0.0816681
0.0891681
0.0971004
0.105465
0.114247
0.123414
0.132909
0.142646
0.152512
0.162363
0.172035
0.181355
0.190144
0.198233
0.205472
0.211728
0.216896
0.220897
0.223676
0.225192
0.225459
0.225269
0.225262
0.225358
0.225532
0.225759
0.226023
0.226321
0.226647
0.227001
0.227373
0.227763
0.228165
0.228575
0.22899
0.229411
0.22984
0.230281
0.230732
0.231174
0.231568
0.231841
0.231817
0.232049
0.0556762
0.0613133
0.0675238
0.0741385
0.0811651
0.088612
0.0964849
0.104782
0.113489
0.122571
0.131969
0.141598
0.151343
0.161061
0.170588
0.179747
0.18836
0.196257
0.203284
0.209308
0.214222
0.217943
0.220416
0.221599
0.22151
0.220999
0.220742
0.220645
0.220669
0.220779
0.220952
0.221181
0.221453
0.221765
0.222104
0.222466
0.222842
0.223227
0.223617
0.224012
0.224413
0.224825
0.225247
0.225661
0.226027
0.226277
0.226206
0.226486
0.0553423
0.0609191
0.0670862
0.0736545
0.0806307
0.0880219
0.0958324
0.104059
0.112687
0.121679
0.130976
0.140492
0.150111
0.15969
0.169064
0.178057
0.18649
0.194191
0.201005
0.2068
0.211465
0.214917
0.2171
0.217973
0.217557
0.216754
0.216273
0.216005
0.215896
0.215902
0.215997
0.216165
0.216391
0.216666
0.216976
0.217312
0.217664
0.218026
0.218391
0.21876
0.219135
0.219519
0.219914
0.220302
0.220646
0.220876
0.220769
0.221127
0.054987
0.0605009
0.0666226
0.0731426
0.0800661
0.0873991
0.0951443
0.103298
0.111842
0.12074
0.129932
0.139329
0.148816
0.15825
0.167465
0.176287
0.184534
0.192037
0.19864
0.204208
0.208631
0.211826
0.213735
0.214321
0.213606
0.212542
0.211862
0.211441
0.211216
0.211133
0.21116
0.211276
0.211461
0.211705
0.211988
0.212301
0.212632
0.212971
0.213313
0.213657
0.214006
0.214364
0.214734
0.215099
0.215424
0.21564
0.215504
0.215969
0.0546111
0.0600598
0.0661343
0.0726039
0.0794727
0.0867449
0.0944221
0.102499
0.110956
0.119756
0.128838
0.138111
0.14746
0.156742
0.165794
0.174438
0.182497
0.189799
0.19619
0.201535
0.205725
0.208674
0.210328
0.210649
0.209665
0.208368
0.207512
0.206959
0.206633
0.206474
0.206443
0.206515
0.206666
0.206882
0.207143
0.207435
0.207744
0.208062
0.208381
0.208702
0.209026
0.209361
0.209708
0.210054
0.210362
0.210566
0.21041
0.211013
0.0542157
0.0595968
0.0656225
0.0720399
0.0788517
0.0860609
0.0936674
0.101664
0.110031
0.118728
0.127695
0.13684
0.146046
0.155171
0.164052
0.172514
0.18038
0.18748
0.193661
0.198788
0.202752
0.205469
0.206885
0.206965
0.20574
0.204237
0.203229
0.202562
0.202151
0.201927
0.201847
0.201883
0.202005
0.202198
0.202439
0.202712
0.203002
0.2033
0.203598
0.203895
0.204197
0.204508
0.204835
0.205165
0.20546
0.205656
0.205485
0.206254
0.0538017
0.0591129
0.0650882
0.0714516
0.0782046
0.0853484
0.0928815
0.100795
0.109067
0.117659
0.126505
0.135516
0.144574
0.153536
0.162242
0.170518
0.178188
0.185085
0.191057
0.195972
0.19972
0.202218
0.203414
0.203275
0.201838
0.200156
0.199017
0.198254
0.197772
0.197495
0.197376
0.197382
0.197481
0.197654
0.197878
0.198133
0.198406
0.198684
0.198961
0.199238
0.199518
0.199808
0.200117
0.200433
0.200719
0.200907
0.200727
0.20169
0.0533703
0.0586094
0.0645327
0.0708405
0.0775327
0.0846091
0.0920661
0.0998934
0.108068
0.116548
0.12527
0.134143
0.143048
0.151843
0.160368
0.168453
0.175925
0.182619
0.188386
0.193093
0.196635
0.19893
0.199924
0.199589
0.197967
0.196131
0.194882
0.194039
0.193499
0.193181
0.193031
0.193013
0.193094
0.193251
0.19346
0.1937
0.193955
0.194215
0.194473
0.194729
0.194989
0.195261
0.195554
0.19586
0.196138
0.196319
0.196136
0.19732
0.0529225
0.0580873
0.0639573
0.0702079
0.0768376
0.0838443
0.0912229
0.0989611
0.107034
0.1154
0.123993
0.132721
0.141468
0.150091
0.158432
0.166324
0.173596
0.180088
0.185652
0.190161
0.193507
0.195612
0.196423
0.195915
0.194133
0.192168
0.190827
0.189922
0.189337
0.188986
0.188813
0.188778
0.188845
0.188989
0.189185
0.189411
0.18965
0.189892
0.190132
0.19037
0.190611
0.190866
0.191146
0.191443
0.191716
0.191891
0.191708
0.193141
0.0524594
0.0575477
0.0633631
0.0695552
0.0761206
0.0830557
0.0903534
0.0979997
0.105968
0.114215
0.122674
0.131254
0.139838
0.148285
0.156439
0.164135
0.171207
0.177498
0.182865
0.187182
0.190345
0.192276
0.192923
0.192262
0.190345
0.188273
0.18686
0.185905
0.185287
0.184914
0.184725
0.184678
0.184735
0.184869
0.185054
0.185267
0.185491
0.185717
0.18594
0.18616
0.186384
0.186624
0.186894
0.187183
0.187454
0.187622
0.187442
0.189149
0.0519821
0.0569918
0.0627515
0.0688837
0.0753833
0.0822449
0.0894595
0.0970111
0.104872
0.112996
0.121317
0.129744
0.13816
0.146427
0.154391
0.161891
0.168763
0.174856
0.180032
0.184166
0.187159
0.188931
0.189432
0.18864
0.186611
0.184453
0.182983
0.181993
0.181353
0.180966
0.180768
0.180714
0.180765
0.180892
0.181067
0.181268
0.181479
0.18169
0.181896
0.1821
0.182309
0.182536
0.182796
0.18308
0.18335
0.183512
0.183338
0.185345
0.0514917
0.0564207
0.0621237
0.0681948
0.0746272
0.0814135
0.0885428
0.0959972
0.103747
0.111745
0.119925
0.128194
0.136437
0.14452
0.152292
0.159594
0.166271
0.172171
0.177161
0.181124
0.183959
0.185588
0.185962
0.185059
0.182939
0.180714
0.179203
0.17819
0.177538
0.177144
0.176944
0.176888
0.176936
0.177057
0.177224
0.177415
0.177613
0.17781
0.178002
0.17819
0.178385
0.1786
0.178853
0.179134
0.179404
0.179558
0.179394
0.181727
0.0509892
0.0558356
0.061481
0.0674899
0.0738537
0.0805631
0.0876051
0.0949598
0.102596
0.110465
0.118498
0.126606
0.134674
0.142569
0.150145
0.15725
0.163732
0.169446
0.174263
0.178065
0.180756
0.182259
0.182524
0.18153
0.179339
0.177064
0.175524
0.174499
0.173843
0.173452
0.173254
0.1732
0.173248
0.173366
0.173527
0.173709
0.173895
0.174079
0.174257
0.174432
0.174614
0.174819
0.175067
0.175344
0.175615
0.175763
0.175611
0.178293
0.0504758
0.0552376
0.0608247
0.0667704
0.0730644
0.0796954
0.0866483
0.0939011
0.10142
0.109157
0.117042
0.124985
0.132873
0.140578
0.147958
0.154865
0.161154
0.166687
0.171339
0.174996
0.177561
0.178955
0.179129
0.178063
0.17582
0.173509
0.171952
0.170924
0.170274
0.16989
0.169701
0.169653
0.169703
0.16982
0.169976
0.17015
0.170326
0.170497
0.170663
0.170825
0.170997
0.171193
0.171435
0.171711
0.171984
0.172126
0.171988
0.175042
0.0499526
0.0546278
0.0601559
0.0660376
0.0722609
0.0788121
0.0856741
0.0928229
0.100223
0.107825
0.115558
0.123333
0.13104
0.138553
0.145735
0.152445
0.158544
0.163901
0.168396
0.171922
0.17438
0.175688
0.17579
0.174669
0.17239
0.170057
0.168493
0.16747
0.166832
0.166461
0.166285
0.166245
0.166301
0.166419
0.166572
0.166738
0.166905
0.167065
0.16722
0.167371
0.167534
0.167722
0.16796
0.168235
0.168509
0.168647
0.168525
0.171972
0.0494206
0.0540074
0.0594759
0.065293
0.0714445
0.0779148
0.0846845
0.0917275
0.0990069
0.106471
0.11405
0.121655
0.129178
0.136498
0.143483
0.149997
0.15591
0.161097
0.165445
0.16885
0.171216
0.172461
0.172517
0.171359
0.16906
0.166717
0.165153
0.164141
0.16352
0.163168
0.163008
0.16298
0.163043
0.163163
0.163314
0.163476
0.163634
0.163785
0.163929
0.164071
0.164225
0.164408
0.164642
0.164917
0.165192
0.165327
0.165223
0.169082
0.0488808
0.0533773
0.0587859
0.0645378
0.0706169
0.0770052
0.0836813
0.090617
0.0977735
0.105098
0.112521
0.119954
0.127293
0.134419
0.141207
0.147529
0.15326
0.158284
0.162494
0.165789
0.168078
0.169276
0.169311
0.168144
0.165838
0.163495
0.161938
0.160942
0.160342
0.160013
0.159871
0.159858
0.15993
0.160055
0.160205
0.160362
0.160514
0.160656
0.160792
0.160926
0.161073
0.161251
0.161483
0.161756
0.162033
0.162166
0.16208
0.166368
0.0483344
0.0527387
0.0580872
0.0637735
0.0697795
0.0760851
0.0826666
0.0894936
0.0965258
0.103709
0.110975
0.118235
0.125389
0.132322
0.138915
0.145048
0.150603
0.155471
0.159552
0.16275
0.164976
0.166142
0.166175
0.165024
0.162733
0.160402
0.158854
0.157877
0.157302
0.156997
0.156878
0.156881
0.156964
0.157094
0.157245
0.1574
0.157546
0.157681
0.15781
0.157937
0.158078
0.158252
0.158482
0.158755
0.159033
0.159164
0.159099
0.163829
0.0477823
0.0520927
0.0573809
0.0630014
0.0689338
0.075156
0.081642
0.0883595
0.0952665
0.102308
0.109415
0.116502
0.123471
0.130213
0.136615
0.142562
0.147947
0.152667
0.156629
0.159741
0.161917
0.163068
0.163115
0.162002
0.159754
0.157443
0.15591
0.154953
0.154403
0.154125
0.154029
0.15405
0.154145
0.154282
0.154436
0.154589
0.154731
0.154861
0.154984
0.155106
0.155242
0.155412
0.155641
0.155912
0.156191
0.156322
0.156279
0.161461
0.0472256
0.0514402
0.0566681
0.0622226
0.0680813
0.0742197
0.0806098
0.0872172
0.0939982
0.100898
0.107846
0.114761
0.121546
0.128099
0.134312
0.140079
0.145301
0.149881
0.153734
0.156773
0.158911
0.16006
0.160138
0.159079
0.156897
0.154629
0.153112
0.152175
0.151651
0.151399
0.151327
0.151366
0.151474
0.15162
0.151777
0.151931
0.15207
0.152197
0.152316
0.152433
0.152567
0.152733
0.152962
0.15323
0.153511
0.153642
0.153625
0.159264
0.0466651
0.0507821
0.0559499
0.0614385
0.0672234
0.0732779
0.0795718
0.0860687
0.0927238
0.099481
0.106272
0.113015
0.119619
0.125986
0.132015
0.137609
0.142674
0.147123
0.150877
0.153853
0.155967
0.157128
0.157249
0.15626
0.154162
0.151964
0.150467
0.14955
0.149049
0.148824
0.148774
0.148832
0.148954
0.149109
0.149272
0.149427
0.149566
0.149691
0.149808
0.149922
0.150055
0.150218
0.150446
0.150712
0.150992
0.151127
0.151139
0.157236
0.0461019
0.0501196
0.0552275
0.0606504
0.0663615
0.0723322
0.0785299
0.0849167
0.0914461
0.0980619
0.104696
0.11127
0.117696
0.123881
0.129732
0.135158
0.140074
0.144402
0.148067
0.150991
0.153092
0.154278
0.154456
0.15355
0.151552
0.149451
0.147983
0.147084
0.146604
0.146402
0.146374
0.14645
0.146586
0.146751
0.14692
0.147079
0.147219
0.147343
0.147459
0.147573
0.147705
0.147867
0.148094
0.148356
0.148634
0.148777
0.148819
0.155371
0.0455369
0.0494534
0.0545018
0.0598592
0.065497
0.0713841
0.0774862
0.0837633
0.090168
0.0966435
0.103123
0.10953
0.115782
0.12179
0.127469
0.132735
0.137511
0.141726
0.145312
0.148194
0.150293
0.151516
0.151764
0.150953
0.149066
0.147077
0.145666
0.144784
0.144322
0.144138
0.144129
0.144221
0.14437
0.144546
0.144724
0.144888
0.145031
0.145156
0.145273
0.145388
0.14552
0.145682
0.145907
0.146167
0.14644
0.146594
0.146669
0.153668
0.044971
0.0487844
0.0537737
0.0590663
0.0646312
0.0704354
0.0764425
0.082611
0.0888923
0.0952296
0.101557
0.107802
0.113883
0.119721
0.125234
0.130348
0.134992
0.139104
0.14262
0.145472
0.147579
0.148849
0.149178
0.148473
0.146709
0.144845
0.143517
0.142656
0.142206
0.142038
0.142043
0.142149
0.14231
0.142496
0.142684
0.142854
0.143001
0.14313
0.143251
0.143368
0.143501
0.143665
0.143888
0.144146
0.144411
0.144583
0.144689
0.152121
0.044405
0.0481135
0.0530443
0.0582727
0.0637654
0.0694875
0.0754008
0.081462
0.0876219
0.0938236
0.100003
0.106089
0.112006
0.117679
0.123034
0.128004
0.132526
0.136544
0.14
0.14283
0.144956
0.146283
0.146703
0.146114
0.144483
0.14275
0.141519
0.140704
0.140264
0.140105
0.14012
0.140235
0.140406
0.140603
0.140801
0.140979
0.141133
0.141268
0.141393
0.141515
0.141651
0.141818
0.142038
0.142294
0.142551
0.142742
0.142881
0.150726
0.0438399
0.0474414
0.0523145
0.0574793
0.0629008
0.0685421
0.0743629
0.0803188
0.0863597
0.0924291
0.098464
0.104396
0.110156
0.115671
0.120877
0.125711
0.13012
0.134053
0.137458
0.140275
0.142429
0.143822
0.144342
0.143879
0.142389
0.140795
0.13967
0.138927
0.1385
0.138343
0.138362
0.138482
0.13866
0.138868
0.139077
0.139265
0.139426
0.139569
0.139701
0.13983
0.139971
0.140141
0.140362
0.140615
0.140865
0.141078
0.141253
0.149483
0.0432763
0.0467688
0.0515849
0.0566872
0.0620386
0.0676003
0.0733305
0.0791834
0.0851084
0.0910492
0.0969446
0.10273
0.108337
0.113704
0.118768
0.123476
0.127781
0.131639
0.135002
0.137814
0.140003
0.14147
0.142099
0.14177
0.140429
0.13898
0.137966
0.137305
0.136917
0.136758
0.136774
0.136892
0.137074
0.137291
0.137513
0.137712
0.137883
0.138036
0.138177
0.138314
0.138462
0.138637
0.138859
0.13911
0.139354
0.139589
0.139801
0.148397
0.0427152
0.0460965
0.0508565
0.0558973
0.0611799
0.0666638
0.0723055
0.0780582
0.0838707
0.0896875
0.0954488
0.101093
0.106557
0.111782
0.116714
0.121306
0.125516
0.129306
0.132636
0.135452
0.137684
0.139232
0.139976
0.13979
0.138605
0.137305
0.136406
0.135834
0.135503
0.135351
0.135357
0.135467
0.135647
0.135873
0.136108
0.13632
0.136503
0.136669
0.136821
0.136968
0.137126
0.137306
0.137532
0.137779
0.138021
0.138278
0.138529
0.147448
0.0421571
0.0454251
0.0501298
0.0551103
0.0603256
0.0657336
0.0712894
0.0769451
0.0826492
0.0883468
0.0939801
0.0994899
0.104818
0.109911
0.11472
0.119205
0.12333
0.127062
0.130366
0.133194
0.135474
0.13711
0.137976
0.137939
0.136917
0.135771
0.134989
0.134508
0.134245
0.134125
0.134114
0.134208
0.134382
0.134615
0.134864
0.135091
0.135289
0.135469
0.135635
0.135793
0.135962
0.136148
0.136378
0.136622
0.136863
0.137141
0.137431
0.146649
0.041603
0.0447551
0.0494057
0.0543271
0.0594768
0.0648111
0.0702838
0.0758461
0.0814463
0.0870304
0.0925421
0.0979255
0.103127
0.108097
0.112793
0.117179
0.121228
0.124911
0.128197
0.131042
0.133378
0.135107
0.136101
0.136218
0.135366
0.134377
0.133716
0.133328
0.133133
0.133056
0.133046
0.133117
0.133278
0.133515
0.13378
0.134026
0.13424
0.134437
0.134619
0.13479
0.134971
0.135166
0.135401
0.135644
0.135884
0.136186
0.136519
0.146003
0.0410534
0.0440872
0.0486846
0.0535483
0.0586342
0.0638972
0.0692899
0.0747628
0.0802642
0.0857407
0.091138
0.0964031
0.101486
0.106342
0.110935
0.115233
0.119215
0.122857
0.126132
0.129001
0.131398
0.133225
0.134351
0.134628
0.133952
0.133124
0.132585
0.132292
0.132168
0.13214
0.13215
0.132195
0.132336
0.132575
0.132857
0.133124
0.133358
0.133575
0.133774
0.133961
0.134155
0.13436
0.134599
0.134843
0.135083
0.135409
0.135783
0.145508
0.0405091
0.0434219
0.0479671
0.0527746
0.0577987
0.062993
0.0683092
0.073697
0.0791049
0.0844802
0.0897707
0.094926
0.0998998
0.104652
0.109151
0.113371
0.117294
0.120903
0.124175
0.127073
0.129535
0.131464
0.132728
0.13317
0.132675
0.13201
0.131598
0.131401
0.131348
0.13137
0.131408
0.131445
0.131556
0.131794
0.132095
0.132386
0.132644
0.132884
0.133103
0.133307
0.133515
0.133732
0.133976
0.134221
0.134463
0.134811
0.135228
0.145156
0.0399705
0.0427595
0.0472537
0.0520064
0.0569708
0.0620992
0.0673426
0.07265
0.0779701
0.0832511
0.0884426
0.0934968
0.0983711
0.10303
0.107445
0.111596
0.11547
0.119053
0.122328
0.12526
0.127792
0.129827
0.131231
0.131843
0.131534
0.131036
0.130751
0.130653
0.130674
0.130748
0.13082
0.130863
0.130941
0.131173
0.131494
0.131813
0.132098
0.132365
0.132606
0.13283
0.133053
0.133282
0.133532
0.133779
0.134025
0.134393
0.134849
0.144945
0.0394385
0.0421005
0.0465447
0.0512443
0.0561511
0.0612167
0.0663911
0.0716231
0.0768614
0.0820553
0.0871559
0.0921182
0.0969026
0.101477
0.105818
0.10991
0.113743
0.117308
0.120592
0.123564
0.126169
0.128313
0.129861
0.130647
0.130528
0.1302
0.130046
0.130048
0.130144
0.130273
0.130381
0.130438
0.130494
0.130713
0.131054
0.131406
0.131723
0.132019
0.132285
0.13253
0.132771
0.133013
0.133271
0.133521
0.133773
0.134158
0.134656
0.144878
0.0389135
0.0414453
0.0458406
0.0504886
0.0553401
0.0603459
0.0654554
0.0706171
0.07578
0.0808941
0.0859123
0.0907918
0.0954962
0.0999969
0.104274
0.108316
0.112116
0.11567
0.118968
0.121985
0.124666
0.126922
0.128616
0.12958
0.129657
0.129501
0.12948
0.129585
0.129759
0.129944
0.130093
0.130171
0.130218
0.130414
0.130778
0.131164
0.131519
0.131847
0.132141
0.132409
0.132669
0.132926
0.133193
0.133447
0.133706
0.134101
0.134638
0.144973
0.0383961
0.0407942
0.0451415
0.0497396
0.0545381
0.0594873
0.0645361
0.0696329
0.0747268
0.0797687
0.0847131
0.0895193
0.0941535
0.0985902
0.102813
0.106814
0.11059
0.11414
0.117459
0.120523
0.123284
0.125653
0.127497
0.128641
0.128919
0.128938
0.129053
0.129263
0.129518
0.129763
0.129955
0.130062
0.130112
0.130279
0.130665
0.13109
0.131487
0.131851
0.132175
0.132469
0.13275
0.133025
0.133302
0.13356
0.13383
0.134232
0.134804
0.145199
0.0378868
0.0401474
0.0444479
0.0489975
0.0537453
0.0586412
0.0636336
0.0686708
0.0737023
0.0786798
0.0835591
0.0883013
0.0928752
0.0972581
0.101436
0.105405
0.109165
0.112718
0.116062
0.119178
0.122021
0.124507
0.126502
0.12783
0.128313
0.128509
0.128763
0.129081
0.12942
0.129729
0.129968
0.130109
0.130167
0.130309
0.130717
0.131182
0.131626
0.13203
0.132388
0.132711
0.133017
0.13331
0.133601
0.133867
0.134149
0.134558
0.13516
0.145566
0.0373862
0.0395053
0.0437598
0.0482625
0.052962
0.0578077
0.062748
0.0677312
0.072707
0.0776279
0.0824507
0.0871385
0.091662
0.0960008
0.100144
0.104089
0.107841
0.111403
0.114778
0.117949
0.120878
0.123481
0.12563
0.127144
0.127837
0.128214
0.128609
0.129039
0.129465
0.129842
0.130133
0.130312
0.130385
0.130509
0.130934
0.131442
0.131938
0.132385
0.13278
0.133135
0.133467
0.133781
0.134089
0.134366
0.134661
0.135075
0.135702
0.146069
0.0368947
0.038868
0.0430774
0.0475347
0.052188
0.0569868
0.0618794
0.0668141
0.0717408
0.0766128
0.0813879
0.0860306
0.0905133
0.0948179
0.0989356
0.102866
0.106617
0.110195
0.113605
0.116836
0.119852
0.122575
0.124878
0.126581
0.127489
0.128049
0.12859
0.129135
0.129652
0.130102
0.13045
0.130673
0.130769
0.130882
0.131318
0.13187
0.13242
0.132915
0.133351
0.133739
0.1341
0.134438
0.134763
0.135054
0.135363
0.135782
0.136432
0.146723
0.0364128
0.0382358
0.0424008
0.0468141
0.0514235
0.0561785
0.0610276
0.0659191
0.0708034
0.0756342
0.0803702
0.0849771
0.0894288
0.0937087
0.0978101
0.101735
0.105492
0.109092
0.112543
0.115837
0.118942
0.121786
0.124245
0.12614
0.127266
0.128014
0.128704
0.129368
0.129981
0.130508
0.130919
0.131192
0.13132
0.131433
0.131868
0.132465
0.133073
0.133619
0.134098
0.134523
0.134915
0.135279
0.135623
0.13593
0.136255
0.136679
0.137349
0.147514
0.0359409
0.0376088
0.0417301
0.0461007
0.0506682
0.0553825
0.0601922
0.0650459
0.0698942
0.0746913
0.0793966
0.0839768
0.0884069
0.0926717
0.0967658
0.100693
0.104464
0.108093
0.111589
0.114949
0.118145
0.121112
0.123729
0.125818
0.127168
0.128106
0.128949
0.129737
0.13045
0.13106
0.13154
0.131869
0.13204
0.132166
0.132586
0.133229
0.133896
0.134495
0.13502
0.135485
0.135908
0.1363
0.136665
0.136991
0.137332
0.137763
0.13845
0.148456
0.0354795
0.0369871
0.0410653
0.0453944
0.0499219
0.0545984
0.0593727
0.0641937
0.0690123
0.0737831
0.078466
0.0830283
0.087446
0.0917049
0.0958008
0.0997389
0.103532
0.107195
0.110741
0.11417
0.117461
0.120552
0.123328
0.125612
0.12719
0.128323
0.129324
0.13024
0.131059
0.131758
0.132313
0.132705
0.132927
0.133075
0.133474
0.13416
0.134888
0.135543
0.136116
0.136621
0.137077
0.137498
0.137884
0.138231
0.138588
0.139029
0.139731
0.149541
0.0350289
0.0363709
0.0404064
0.0446951
0.0491845
0.0538258
0.0585685
0.0633617
0.0681566
0.072908
0.0775765
0.0821296
0.086544
0.090806
0.0949124
0.0988694
0.102691
0.106394
0.109995
0.113498
0.116886
0.120102
0.123038
0.125521
0.127331
0.128663
0.129826
0.130876
0.131807
0.1326
0.133237
0.1337
0.133983
0.134159
0.134536
0.13526
0.136047
0.136759
0.137382
0.137928
0.138417
0.138866
0.139275
0.139642
0.140015
0.140468
0.141183
0.150783
0.0345895
0.0357603
0.0397535
0.0440026
0.0484555
0.0530642
0.0577787
0.0625487
0.0673256
0.0720646
0.0767262
0.0812784
0.0856981
0.0899721
0.0940976
0.0980816
0.101939
0.105689
0.10935
0.11293
0.116416
0.119759
0.122857
0.12554
0.127587
0.129122
0.130453
0.131642
0.132691
0.133586
0.134311
0.134853
0.135204
0.135418
0.135776
0.13653
0.137374
0.138144
0.138816
0.139404
0.139924
0.140401
0.140829
0.141215
0.141603
0.142073
0.142792
0.152185
0.0341616
0.0351553
0.0391064
0.0433168
0.0477346
0.0523129
0.0570025
0.0617535
0.0665178
0.0712506
0.0759126
0.0804719
0.0849053
0.0891998
0.0933527
0.0973716
0.101272
0.105075
0.108802
0.112462
0.11605
0.119522
0.122782
0.125667
0.127955
0.129698
0.131202
0.132537
0.13371
0.134712
0.135534
0.136163
0.136592
0.136854
0.137198
0.13797
0.138868
0.139696
0.140418
0.141046
0.141596
0.142098
0.142545
0.142945
0.143346
0.143833
0.144544
0.153752
0.0337458
0.0345561
0.0384652
0.0426375
0.0470215
0.0515714
0.0562389
0.0609748
0.0657314
0.0704639
0.0751332
0.0797071
0.0841622
0.0884854
0.092674
0.0967355
0.100687
0.104549
0.108345
0.112091
0.115783
0.119385
0.122809
0.125899
0.128431
0.130388
0.132071
0.133558
0.134861
0.135979
0.136904
0.137628
0.138143
0.138466
0.13881
0.139583
0.14053
0.141416
0.142189
0.142856
0.143435
0.143958
0.144421
0.144833
0.145244
0.145754
0.146437
0.155475
0.0333421
0.0339627
0.0378298
0.0419645
0.0463155
0.0508387
0.0554867
0.0602111
0.0649644
0.0697021
0.0743849
0.0789804
0.0834649
0.0878247
0.0920568
0.0961687
0.100177
0.104105
0.107977
0.111812
0.115611
0.119346
0.122935
0.126231
0.129013
0.131186
0.133055
0.134701
0.136142
0.137382
0.138418
0.139244
0.139855
0.140256
0.140621
0.141372
0.142363
0.143306
0.14413
0.144836
0.145443
0.145984
0.146462
0.146881
0.1473
0.147835
0.148471
0.157383
0.0329511
0.0333752
0.0372001
0.0412975
0.0456165
0.0501144
0.054745
0.0594608
0.0642148
0.0689626
0.0736647
0.0782884
0.0828093
0.0872132
0.0914963
0.095666
0.0997389
0.103739
0.107692
0.11162
0.11553
0.119399
0.123156
0.12666
0.129694
0.132091
0.134151
0.135963
0.137548
0.138918
0.140073
0.141009
0.141723
0.142217
0.142622
0.143339
0.144368
0.145369
0.146246
0.146992
0.147628
0.148187
0.148679
0.149103
0.149529
0.150095
0.150662
0.159473
0.0325728
0.0327936
0.0365762
0.0406364
0.0449238
0.0493974
0.0540125
0.0587223
0.0634803
0.0682425
0.0729691
0.0776269
0.0821908
0.0866458
0.0909873
0.0952219
0.0993662
0.103444
0.107484
0.11151
0.115534
0.11954
0.123466
0.127179
0.13047
0.133095
0.135353
0.137338
0.139076
0.140582
0.141863
0.142917
0.143743
0.144342
0.144804
0.145488
0.146546
0.147607
0.148541
0.149331
0.15
0.15058
0.151087
0.151519
0.151953
0.152555
0.153038
0.161771
0.0322078
0.032218
0.0359579
0.039981
0.0442372
0.0486873
0.053288
0.0579938
0.0627589
0.0675391
0.0722947
0.0769919
0.0816048
0.0861173
0.090524
0.0948305
0.0990528
0.103216
0.107348
0.111477
0.115618
0.119764
0.123859
0.127784
0.131334
0.134192
0.136656
0.138822
0.14072
0.14237
0.143783
0.144963
0.145908
0.14662
0.147156
0.147818
0.148898
0.15002
0.151018
0.151859
0.152568
0.153176
0.153706
0.154151
0.1546
0.155241
0.155639
0.16427
0.0318561
0.0316485
0.0353451
0.039331
0.043556
0.0479831
0.0525705
0.0572738
0.062048
0.0668493
0.0716377
0.0763789
0.081046
0.085622
0.0901001
0.0944849
0.0987919
0.103045
0.107275
0.111512
0.115775
0.120063
0.12433
0.128468
0.13228
0.135377
0.138052
0.140406
0.142472
0.144274
0.145827
0.147139
0.148211
0.149044
0.149667
0.15033
0.151417
0.152603
0.153672
0.154575
0.155335
0.155982
0.156545
0.157014
0.157486
0.158168
0.15849
0.166962
0.031518
0.0310851
0.0347379
0.0386863
0.04288
0.0472841
0.0518586
0.0565605
0.0613455
0.0661702
0.0709945
0.0757834
0.0805093
0.0851539
0.0897092
0.0941784
0.098576
0.102926
0.10726
0.111609
0.115997
0.12043
0.124871
0.129223
0.1333
0.13664
0.139534
0.142084
0.144325
0.146286
0.147986
0.149437
0.150643
0.151603
0.152333
0.153026
0.154096
0.155344
0.156491
0.157468
0.15829
0.158989
0.159596
0.160102
0.16061
0.161331
0.161592
0.169814
0.0311938
0.0305278
0.0341362
0.0380466
0.0422087
0.0465896
0.0511514
0.0558523
0.060649
0.0654987
0.070361
0.0752007
0.0799892
0.0847068
0.0893442
0.0939032
0.0983972
0.10285
0.107292
0.111758
0.116276
0.120856
0.125473
0.13004
0.134384
0.137972
0.141092
0.143845
0.14627
0.148397
0.150251
0.151849
0.153194
0.15429
0.15514
0.155888
0.156926
0.158228
0.159457
0.160515
0.161411
0.162172
0.162833
0.163385
0.163935
0.164699
0.164909
0.172835
0.0308836
0.0299767
0.03354
0.0374119
0.0415418
0.0458991
0.0504477
0.0551476
0.0599564
0.0648318
0.0697338
0.0746264
0.0794802
0.0842745
0.0889982
0.0936518
0.0982472
0.102807
0.107364
0.111951
0.116602
0.121333
0.126127
0.130911
0.135523
0.139364
0.142716
0.14568
0.148296
0.150597
0.152613
0.154362
0.155855
0.157092
0.158077
0.158901
0.159906
0.161243
0.162554
0.163701
0.164677
0.165508
0.166229
0.166836
0.16743
0.168245
0.168394
0.176006
0.0305877
0.0294319
0.0329491
0.036782
0.0408789
0.0452118
0.0497466
0.0544448
0.0592654
0.0641668
0.069109
0.0740558
0.078977
0.0838505
0.0886639
0.0934161
0.0981176
0.10279
0.107465
0.112179
0.116967
0.12185
0.126823
0.131824
0.136706
0.140804
0.144394
0.147577
0.150392
0.152875
0.155058
0.156967
0.158613
0.159999
0.161129
0.162051
0.163038
0.164384
0.165771
0.167012
0.168077
0.168988
0.169778
0.170446
0.17109
0.171963
0.172052
0.179317
0.0303061
0.0288935
0.0323637
0.0361567
0.0402198
0.0445273
0.0490472
0.0537428
0.0585743
0.0635011
0.0684834
0.0734848
0.0784744
0.083429
0.0883347
0.0931887
0.0979999
0.102789
0.107587
0.112431
0.117359
0.122399
0.127552
0.13277
0.137922
0.142281
0.146115
0.149524
0.152546
0.155218
0.157577
0.159651
0.161456
0.162999
0.164281
0.165325
0.166333
0.167649
0.169101
0.170437
0.171598
0.1726
0.173469
0.174208
0.174909
0.175844
0.175884
0.182771
0.0300391
0.0283614
0.0317837
0.0355361
0.0395643
0.0438452
0.0483488
0.0530403
0.0578815
0.0628325
0.0678541
0.0729097
0.0779679
0.0830045
0.088004
0.0929622
0.0978862
0.102795
0.10772
0.112698
0.117769
0.122967
0.128302
0.133738
0.13916
0.143783
0.147867
0.151509
0.154745
0.157614
0.160156
0.162401
0.164372
0.166076
0.167518
0.168705
0.169769
0.171043
0.172538
0.173967
0.175231
0.176332
0.177291
0.178111
0.178878
0.179885
0.179889
0.186371
0.0297868
0.0278359
0.0312093
0.0349205
0.038913
0.043166
0.0476521
0.0523383
0.0571878
0.062162
0.0672221
0.0723318
0.077459
0.0825787
0.087674
0.0927391
0.0977794
0.102813
0.107868
0.112985
0.118204
0.123564
0.129083
0.134738
0.140431
0.145321
0.149662
0.153544
0.157004
0.160078
0.162808
0.165232
0.167374
0.169247
0.170855
0.172201
0.173359
0.174601
0.176109
0.17762
0.17899
0.1802
0.181259
0.182171
0.183011
0.184101
0.184083
0.190137
0.0295492
0.027317
0.0306407
0.0343098
0.0382655
0.0424896
0.0469567
0.0516359
0.0564922
0.0614881
0.0665855
0.0717482
0.0769442
0.0821473
0.0873396
0.0925136
0.0976731
0.102834
0.108025
0.113284
0.118656
0.124181
0.129886
0.135762
0.141725
0.146887
0.15149
0.15562
0.159311
0.162598
0.165526
0.168134
0.170453
0.1725
0.174281
0.175799
0.177088
0.178341
0.179821
0.181396
0.182869
0.184194
0.185365
0.186379
0.187302