/*--------------------------------*- C++ -*----------------------------------*\
  =========                 |
  \\      /  F ield         | OpenFOAM: The Open Source CFD Toolbox
   \\    /   O peration     | Website:  https://openfoam.org
    \\  /    A nd           | Version:  10
     \\/     M anipulation  |
\*---------------------------------------------------------------------------*/
FoamFile
{
    format      ascii;
    class       volScalarField;
    location    "5";
    object      nut;
}
// * * * * * * * * * * * * * * * * * * * * * * * * * * * * * * * * * * * * * //

dimensions      [0 2 -1 0 0 0 0];

internalField   nonuniform List<scalar> 
38016
(
7.98091e-05
7.69918e-05
7.39949e-05
7.10262e-05
6.81455e-05
6.54055e-05
6.28492e-05
6.05081e-05
5.84021e-05
5.65396e-05
5.49192e-05
5.35315e-05
5.23609e-05
5.13882e-05
5.05913e-05
4.99478e-05
4.94355e-05
4.90338e-05
4.87239e-05
4.84897e-05
4.83176e-05
4.81964e-05
4.81179e-05
4.80749e-05
4.80634e-05
4.80625e-05
4.80604e-05
4.80565e-05
4.80525e-05
4.80485e-05
4.80445e-05
4.8041e-05
4.80379e-05
4.80355e-05
4.80338e-05
4.8033e-05
4.80331e-05
4.80343e-05
4.80366e-05
4.80399e-05
4.80443e-05
4.80501e-05
4.80577e-05
4.80677e-05
4.80812e-05
4.80997e-05
4.81175e-05
4.81069e-05
7.98538e-05
7.70922e-05
7.41087e-05
7.11502e-05
6.82764e-05
6.554e-05
6.29844e-05
6.06416e-05
5.85319e-05
5.66643e-05
5.50379e-05
5.36438e-05
5.24669e-05
5.1488e-05
5.06856e-05
5.00372e-05
4.95208e-05
4.91157e-05
4.88035e-05
4.8568e-05
4.83956e-05
4.82754e-05
4.8199e-05
4.816e-05
4.81541e-05
4.81586e-05
4.81598e-05
4.8158e-05
4.81551e-05
4.81515e-05
4.81475e-05
4.81435e-05
4.81396e-05
4.81362e-05
4.81331e-05
4.81308e-05
4.81292e-05
4.81286e-05
4.81289e-05
4.81301e-05
4.81325e-05
4.81363e-05
4.81422e-05
4.81506e-05
4.81627e-05
4.81799e-05
4.8196e-05
4.8185e-05
7.99103e-05
7.72058e-05
7.42356e-05
7.12872e-05
6.842e-05
6.56868e-05
6.31314e-05
6.07863e-05
5.86723e-05
5.6799e-05
5.51661e-05
5.3765e-05
5.25811e-05
5.15956e-05
5.07871e-05
5.01334e-05
4.96125e-05
4.92039e-05
4.88892e-05
4.86522e-05
4.84795e-05
4.83603e-05
4.82866e-05
4.8252e-05
4.82525e-05
4.82633e-05
4.82687e-05
4.82698e-05
4.82686e-05
4.82659e-05
4.82623e-05
4.82582e-05
4.82538e-05
4.82496e-05
4.82456e-05
4.82421e-05
4.82392e-05
4.82372e-05
4.8236e-05
4.82359e-05
4.82369e-05
4.82395e-05
4.82442e-05
4.82517e-05
4.82629e-05
4.82786e-05
4.82924e-05
4.82802e-05
7.9978e-05
7.73321e-05
7.43753e-05
7.14369e-05
6.8576e-05
6.58457e-05
6.32901e-05
6.09422e-05
5.88233e-05
5.69437e-05
5.53037e-05
5.38951e-05
5.27038e-05
5.17112e-05
5.08962e-05
5.02368e-05
4.97111e-05
4.92987e-05
4.89812e-05
4.87426e-05
4.85697e-05
4.84518e-05
4.8381e-05
4.83514e-05
4.83591e-05
4.8377e-05
4.83873e-05
4.83918e-05
4.83929e-05
4.83916e-05
4.83887e-05
4.83847e-05
4.83802e-05
4.83755e-05
4.83708e-05
4.83664e-05
4.83626e-05
4.83596e-05
4.83574e-05
4.83562e-05
4.83562e-05
4.83579e-05
4.8362e-05
4.83689e-05
4.83791e-05
4.8393e-05
4.84035e-05
4.83901e-05
8.00563e-05
7.74708e-05
7.45276e-05
7.15991e-05
6.87445e-05
6.60169e-05
6.34607e-05
6.11095e-05
5.89853e-05
5.70989e-05
5.54512e-05
5.40346e-05
5.28354e-05
5.18353e-05
5.10134e-05
5.03478e-05
4.9817e-05
4.94006e-05
4.90801e-05
4.88399e-05
4.86667e-05
4.85501e-05
4.84825e-05
4.84583e-05
4.84739e-05
4.84998e-05
4.85156e-05
4.8524e-05
4.85277e-05
4.85281e-05
4.85262e-05
4.85227e-05
4.85181e-05
4.85131e-05
4.85077e-05
4.85026e-05
4.84979e-05
4.84938e-05
4.84907e-05
4.84885e-05
4.84878e-05
4.84888e-05
4.84923e-05
4.84985e-05
4.85077e-05
4.85192e-05
4.85244e-05
4.85093e-05
8.01449e-05
7.7622e-05
7.46926e-05
7.17741e-05
6.89257e-05
6.62005e-05
6.36435e-05
6.12886e-05
5.91586e-05
5.7265e-05
5.56092e-05
5.41841e-05
5.29765e-05
5.19684e-05
5.11392e-05
5.04672e-05
4.99309e-05
4.95101e-05
4.91865e-05
4.89444e-05
4.87709e-05
4.86557e-05
4.85915e-05
4.85733e-05
4.85974e-05
4.86318e-05
4.86537e-05
4.86665e-05
4.86732e-05
4.86755e-05
4.86747e-05
4.86718e-05
4.86673e-05
4.86619e-05
4.86559e-05
4.865e-05
4.86444e-05
4.86395e-05
4.86354e-05
4.86324e-05
4.86309e-05
4.86313e-05
4.86342e-05
4.86398e-05
4.86478e-05
4.86566e-05
4.86557e-05
4.86395e-05
8.0243e-05
7.77854e-05
7.48702e-05
7.19619e-05
6.91197e-05
6.63969e-05
6.38387e-05
6.14798e-05
5.93437e-05
5.74424e-05
5.5778e-05
5.4344e-05
5.31276e-05
5.21111e-05
5.12742e-05
5.05954e-05
5.00533e-05
4.96278e-05
4.93008e-05
4.90567e-05
4.88828e-05
4.87691e-05
4.87086e-05
4.86966e-05
4.87299e-05
4.87735e-05
4.8802e-05
4.88195e-05
4.88294e-05
4.8834e-05
4.88344e-05
4.88321e-05
4.88277e-05
4.8822e-05
4.88155e-05
4.88088e-05
4.88024e-05
4.87965e-05
4.87916e-05
4.87877e-05
4.87855e-05
4.87854e-05
4.87878e-05
4.87927e-05
4.87994e-05
4.88057e-05
4.87985e-05
4.87829e-05
8.03502e-05
7.79608e-05
7.50601e-05
7.21623e-05
6.93262e-05
6.66057e-05
6.40463e-05
6.16832e-05
5.95405e-05
5.76312e-05
5.59579e-05
5.45146e-05
5.3289e-05
5.22637e-05
5.14188e-05
5.07328e-05
5.01845e-05
4.97541e-05
4.94234e-05
4.91772e-05
4.90029e-05
4.88908e-05
4.88341e-05
4.88287e-05
4.88717e-05
4.8925e-05
4.89606e-05
4.89832e-05
4.89966e-05
4.90034e-05
4.90053e-05
4.90036e-05
4.89993e-05
4.89934e-05
4.89863e-05
4.89789e-05
4.89716e-05
4.89649e-05
4.89591e-05
4.89546e-05
4.89517e-05
4.89511e-05
4.89531e-05
4.89574e-05
4.8963e-05
4.89671e-05
4.89537e-05
4.89409e-05
8.04657e-05
7.81477e-05
7.5262e-05
7.23748e-05
6.95452e-05
6.68269e-05
6.42661e-05
6.18986e-05
5.97493e-05
5.78316e-05
5.61491e-05
5.46962e-05
5.3461e-05
5.24267e-05
5.15733e-05
5.08798e-05
5.03251e-05
4.98894e-05
4.95549e-05
4.93064e-05
4.91315e-05
4.90209e-05
4.89683e-05
4.89699e-05
4.9023e-05
4.90866e-05
4.91296e-05
4.91575e-05
4.91746e-05
4.91838e-05
4.91871e-05
4.91861e-05
4.9182e-05
4.91758e-05
4.91682e-05
4.916e-05
4.9152e-05
4.91445e-05
4.91379e-05
4.91327e-05
4.91293e-05
4.91282e-05
4.91299e-05
4.91338e-05
4.91385e-05
4.91409e-05
4.91216e-05
4.91142e-05
8.05889e-05
7.83457e-05
7.54755e-05
7.25993e-05
6.97762e-05
6.70603e-05
6.44981e-05
6.21262e-05
5.997e-05
5.80438e-05
5.63518e-05
5.4889e-05
5.36441e-05
5.26003e-05
5.17382e-05
5.10369e-05
5.04755e-05
5.00342e-05
4.96956e-05
4.94445e-05
4.9269e-05
4.916e-05
4.91115e-05
4.91203e-05
4.91841e-05
4.92584e-05
4.93091e-05
4.93425e-05
4.93634e-05
4.9375e-05
4.93798e-05
4.93795e-05
4.93754e-05
4.93689e-05
4.93608e-05
4.9352e-05
4.93432e-05
4.93349e-05
4.93277e-05
4.93219e-05
4.9318e-05
4.93166e-05
4.9318e-05
4.93217e-05
4.93258e-05
4.93269e-05
4.93023e-05
4.93035e-05
8.0719e-05
7.85545e-05
7.57001e-05
7.28353e-05
7.0019e-05
6.73056e-05
6.47421e-05
6.23657e-05
6.02026e-05
5.82678e-05
5.65662e-05
5.50934e-05
5.38384e-05
5.2785e-05
5.19139e-05
5.12045e-05
5.0636e-05
5.0189e-05
4.98459e-05
4.95922e-05
4.94158e-05
4.93083e-05
4.9264e-05
4.92802e-05
4.9355e-05
4.94404e-05
4.9499e-05
4.95381e-05
4.95627e-05
4.95768e-05
4.9583e-05
4.95834e-05
4.95794e-05
4.95726e-05
4.95639e-05
4.95544e-05
4.95449e-05
4.95359e-05
4.95281e-05
4.95217e-05
4.95174e-05
4.95157e-05
4.95171e-05
4.95208e-05
4.95246e-05
4.9525e-05
4.94955e-05
4.95089e-05
8.08552e-05
7.87737e-05
7.59356e-05
7.30825e-05
7.02733e-05
6.75627e-05
6.49981e-05
6.26173e-05
6.04473e-05
5.85039e-05
5.67925e-05
5.53096e-05
5.40444e-05
5.29811e-05
5.21008e-05
5.1383e-05
5.08071e-05
5.0354e-05
5.00063e-05
4.97496e-05
4.95723e-05
4.94662e-05
4.9426e-05
4.94499e-05
4.95358e-05
4.96325e-05
4.96993e-05
4.9744e-05
4.97725e-05
4.97889e-05
4.97964e-05
4.97974e-05
4.97934e-05
4.97863e-05
4.9777e-05
4.97669e-05
4.97566e-05
4.97471e-05
4.97386e-05
4.97318e-05
4.97272e-05
4.97254e-05
4.97269e-05
4.97308e-05
4.97347e-05
4.97346e-05
4.97011e-05
4.97306e-05
8.09968e-05
7.90027e-05
7.61815e-05
7.33405e-05
7.05388e-05
6.78312e-05
6.52657e-05
6.28807e-05
6.0704e-05
5.8752e-05
5.70309e-05
5.55378e-05
5.42622e-05
5.3189e-05
5.22992e-05
5.15727e-05
5.09893e-05
5.05298e-05
5.01772e-05
4.99171e-05
4.97386e-05
4.96337e-05
4.95978e-05
4.96292e-05
4.97265e-05
4.98347e-05
4.99098e-05
4.99601e-05
4.99923e-05
5.0011e-05
5.00197e-05
5.00211e-05
5.00171e-05
5.00095e-05
4.99997e-05
4.99889e-05
4.9978e-05
4.99678e-05
4.99589e-05
4.99517e-05
4.99468e-05
4.9945e-05
4.99468e-05
4.99512e-05
4.99555e-05
4.99553e-05
4.99183e-05
4.99683e-05
8.1143e-05
7.92412e-05
7.64375e-05
7.3609e-05
7.08152e-05
6.8111e-05
6.55449e-05
6.3156e-05
6.09727e-05
5.90123e-05
5.72816e-05
5.57782e-05
5.44924e-05
5.34089e-05
5.25095e-05
5.17742e-05
5.11829e-05
5.07167e-05
5.03588e-05
5.00952e-05
4.99152e-05
4.98113e-05
4.97793e-05
4.98183e-05
4.9927e-05
5.00468e-05
5.01301e-05
5.0186e-05
5.02217e-05
5.02425e-05
5.02523e-05
5.0254e-05
5.02498e-05
5.02418e-05
5.02313e-05
5.02199e-05
5.02084e-05
5.01976e-05
5.01882e-05
5.01807e-05
5.01756e-05
5.0174e-05
5.01762e-05
5.01816e-05
5.01865e-05
5.01863e-05
5.01466e-05
5.02217e-05
8.12928e-05
7.94887e-05
7.67029e-05
7.38876e-05
7.11021e-05
6.84018e-05
6.58355e-05
6.3443e-05
6.12535e-05
5.92849e-05
5.75447e-05
5.60311e-05
5.47349e-05
5.36413e-05
5.27321e-05
5.19877e-05
5.13882e-05
5.0915e-05
5.05514e-05
5.02839e-05
5.01021e-05
4.99989e-05
4.99706e-05
5.0017e-05
5.01372e-05
5.02685e-05
5.03599e-05
5.04212e-05
5.04603e-05
5.04829e-05
5.04935e-05
5.04954e-05
5.04909e-05
5.04824e-05
5.04713e-05
5.04592e-05
5.04471e-05
5.04358e-05
5.04259e-05
5.04181e-05
5.04131e-05
5.04116e-05
5.04146e-05
5.04211e-05
5.0427e-05
5.0427e-05
5.03851e-05
5.04905e-05
8.14455e-05
7.97447e-05
7.69775e-05
7.41758e-05
7.13992e-05
6.87032e-05
6.61372e-05
6.37415e-05
6.15462e-05
5.95698e-05
5.78204e-05
5.62968e-05
5.49902e-05
5.38864e-05
5.29673e-05
5.22136e-05
5.16057e-05
5.1125e-05
5.07555e-05
5.04837e-05
5.02995e-05
5.01966e-05
5.01717e-05
5.02252e-05
5.03566e-05
5.04993e-05
5.05987e-05
5.06652e-05
5.07073e-05
5.07316e-05
5.07428e-05
5.07447e-05
5.07398e-05
5.07306e-05
5.07188e-05
5.07061e-05
5.06933e-05
5.06815e-05
5.06713e-05
5.06633e-05
5.06582e-05
5.06572e-05
5.06611e-05
5.06689e-05
5.06761e-05
5.06764e-05
5.06329e-05
5.07739e-05
8.16001e-05
8.00088e-05
7.72607e-05
7.44733e-05
7.17061e-05
6.90149e-05
6.64497e-05
6.40515e-05
6.18508e-05
5.98669e-05
5.81086e-05
5.65752e-05
5.52584e-05
5.41443e-05
5.32153e-05
5.24521e-05
5.18355e-05
5.13471e-05
5.09712e-05
5.06945e-05
5.05076e-05
5.04044e-05
5.03824e-05
5.04426e-05
5.05848e-05
5.07387e-05
5.08458e-05
5.09172e-05
5.09621e-05
5.09876e-05
5.09993e-05
5.10009e-05
5.09954e-05
5.09855e-05
5.09731e-05
5.09596e-05
5.09463e-05
5.0934e-05
5.09234e-05
5.09152e-05
5.09102e-05
5.09097e-05
5.09148e-05
5.09242e-05
5.09329e-05
5.09335e-05
5.0889e-05
5.10713e-05
8.17556e-05
8.02805e-05
7.75522e-05
7.47795e-05
7.20223e-05
6.93367e-05
6.67729e-05
6.43727e-05
6.21671e-05
6.01763e-05
5.84095e-05
5.68666e-05
5.55398e-05
5.44154e-05
5.34763e-05
5.27035e-05
5.20778e-05
5.15814e-05
5.11986e-05
5.09166e-05
5.07263e-05
5.06223e-05
5.06026e-05
5.06688e-05
5.08214e-05
5.0986e-05
5.11005e-05
5.11765e-05
5.12238e-05
5.12503e-05
5.1262e-05
5.12631e-05
5.1257e-05
5.12462e-05
5.1233e-05
5.12189e-05
5.12049e-05
5.11921e-05
5.11812e-05
5.11729e-05
5.11681e-05
5.11682e-05
5.11745e-05
5.11858e-05
5.11963e-05
5.11972e-05
5.11522e-05
5.13818e-05
8.19112e-05
8.05592e-05
7.78513e-05
7.5094e-05
7.23475e-05
6.96681e-05
6.71064e-05
6.47048e-05
6.2495e-05
6.04978e-05
5.8723e-05
5.7171e-05
5.58343e-05
5.46998e-05
5.37505e-05
5.29678e-05
5.23329e-05
5.1828e-05
5.14378e-05
5.11499e-05
5.09556e-05
5.08499e-05
5.08317e-05
5.09033e-05
5.10655e-05
5.12403e-05
5.13619e-05
5.1442e-05
5.14914e-05
5.15184e-05
5.15299e-05
5.15303e-05
5.15233e-05
5.15117e-05
5.14976e-05
5.14828e-05
5.14682e-05
5.14549e-05
5.14437e-05
5.14352e-05
5.14306e-05
5.14315e-05
5.14392e-05
5.14525e-05
5.14649e-05
5.14661e-05
5.14212e-05
5.17046e-05
8.20658e-05
8.08445e-05
7.81576e-05
7.54164e-05
7.26813e-05
7.00087e-05
6.74499e-05
6.50477e-05
6.28344e-05
6.08313e-05
5.9049e-05
5.74883e-05
5.61421e-05
5.49975e-05
5.40381e-05
5.32454e-05
5.26008e-05
5.2087e-05
5.16889e-05
5.13944e-05
5.11953e-05
5.10872e-05
5.10695e-05
5.11455e-05
5.13165e-05
5.15007e-05
5.16289e-05
5.17127e-05
5.17636e-05
5.17909e-05
5.18018e-05
5.18013e-05
5.17933e-05
5.17807e-05
5.17657e-05
5.17501e-05
5.17349e-05
5.1721e-05
5.17095e-05
5.17009e-05
5.16965e-05
5.16982e-05
5.17075e-05
5.17229e-05
5.17375e-05
5.1739e-05
5.16947e-05
5.20385e-05
8.22183e-05
8.11359e-05
7.84707e-05
7.57461e-05
7.30231e-05
7.03582e-05
6.78031e-05
6.54009e-05
6.31849e-05
6.11767e-05
5.93875e-05
5.78184e-05
5.6463e-05
5.53086e-05
5.43391e-05
5.35361e-05
5.28816e-05
5.23583e-05
5.19516e-05
5.16499e-05
5.14451e-05
5.13336e-05
5.13154e-05
5.13946e-05
5.15734e-05
5.17661e-05
5.19002e-05
5.19873e-05
5.20393e-05
5.20664e-05
5.20764e-05
5.20748e-05
5.20655e-05
5.20519e-05
5.2036e-05
5.20196e-05
5.20036e-05
5.19892e-05
5.19773e-05
5.19686e-05
5.19645e-05
5.1967e-05
5.19779e-05
5.19954e-05
5.20124e-05
5.20142e-05
5.19712e-05
5.23822e-05
8.23677e-05
8.14329e-05
7.87899e-05
7.60827e-05
7.33725e-05
7.07161e-05
6.81654e-05
6.57643e-05
6.35462e-05
6.15337e-05
5.97381e-05
5.81613e-05
5.6797e-05
5.5633e-05
5.46533e-05
5.38401e-05
5.31753e-05
5.26421e-05
5.22261e-05
5.1916e-05
5.17046e-05
5.15886e-05
5.15688e-05
5.16499e-05
5.1835e-05
5.20352e-05
5.21744e-05
5.22642e-05
5.2317e-05
5.23435e-05
5.23523e-05
5.23493e-05
5.23388e-05
5.23239e-05
5.23071e-05
5.22898e-05
5.22731e-05
5.2258e-05
5.22457e-05
5.22368e-05
5.2233e-05
5.22362e-05
5.22488e-05
5.22686e-05
5.22879e-05
5.22903e-05
5.2249e-05
5.27342e-05
8.2513e-05
8.17349e-05
7.91149e-05
7.64257e-05
7.3729e-05
7.10819e-05
6.85365e-05
6.61372e-05
6.3918e-05
6.19019e-05
6.01007e-05
5.85166e-05
5.71438e-05
5.59704e-05
5.49806e-05
5.41569e-05
5.34816e-05
5.2938e-05
5.2512e-05
5.21928e-05
5.19735e-05
5.18516e-05
5.18288e-05
5.19104e-05
5.21004e-05
5.23065e-05
5.24501e-05
5.25421e-05
5.25951e-05
5.26206e-05
5.2628e-05
5.26234e-05
5.26114e-05
5.25952e-05
5.25774e-05
5.25592e-05
5.25416e-05
5.25258e-05
5.2513e-05
5.25039e-05
5.25003e-05
5.25044e-05
5.25185e-05
5.25405e-05
5.25623e-05
5.25653e-05
5.25265e-05
5.30927e-05
8.2653e-05
8.20415e-05
7.94451e-05
7.67746e-05
7.40922e-05
7.14551e-05
6.8916e-05
6.65194e-05
6.42999e-05
6.22809e-05
6.04748e-05
5.8884e-05
5.75031e-05
5.63205e-05
5.53207e-05
5.44865e-05
5.38002e-05
5.32457e-05
5.28091e-05
5.24798e-05
5.22515e-05
5.21222e-05
5.20946e-05
5.2175e-05
5.23681e-05
5.25787e-05
5.27256e-05
5.2819e-05
5.28718e-05
5.2896e-05
5.29016e-05
5.28953e-05
5.28818e-05
5.28643e-05
5.28453e-05
5.28261e-05
5.28076e-05
5.2791e-05
5.27776e-05
5.27682e-05
5.27647e-05
5.27695e-05
5.27851e-05
5.28094e-05
5.28335e-05
5.28375e-05
5.28017e-05
5.34557e-05
8.27865e-05
8.23521e-05
7.978e-05
7.71288e-05
7.44615e-05
7.18353e-05
6.93032e-05
6.69103e-05
6.46914e-05
6.26704e-05
6.086e-05
5.92631e-05
5.78745e-05
5.66829e-05
5.56732e-05
5.48282e-05
5.41307e-05
5.35648e-05
5.31167e-05
5.27764e-05
5.25379e-05
5.23998e-05
5.23656e-05
5.24427e-05
5.26369e-05
5.28501e-05
5.29991e-05
5.30932e-05
5.31452e-05
5.31679e-05
5.31716e-05
5.31633e-05
5.31482e-05
5.31294e-05
5.31092e-05
5.3089e-05
5.30694e-05
5.30518e-05
5.30377e-05
5.30279e-05
5.30244e-05
5.30298e-05
5.30467e-05
5.30731e-05
5.30995e-05
5.31047e-05
5.30727e-05
5.3821e-05
8.29124e-05
8.26663e-05
8.01191e-05
7.74878e-05
7.48363e-05
7.22219e-05
6.96978e-05
6.73094e-05
6.50919e-05
6.30697e-05
6.12557e-05
5.96532e-05
5.82574e-05
5.7057e-05
5.60374e-05
5.51816e-05
5.44725e-05
5.38946e-05
5.34343e-05
5.3082e-05
5.2832e-05
5.26836e-05
5.26409e-05
5.27124e-05
5.29053e-05
5.31191e-05
5.32688e-05
5.33627e-05
5.34135e-05
5.34342e-05
5.34358e-05
5.34256e-05
5.34088e-05
5.33886e-05
5.33673e-05
5.33459e-05
5.33251e-05
5.33064e-05
5.32914e-05
5.32811e-05
5.32774e-05
5.32833e-05
5.33014e-05
5.33296e-05
5.33582e-05
5.33649e-05
5.33374e-05
5.4186e-05
8.30296e-05
8.29836e-05
8.04618e-05
7.78512e-05
7.52161e-05
7.26143e-05
7.0099e-05
6.7716e-05
6.55009e-05
6.34782e-05
6.16613e-05
6.00539e-05
5.86511e-05
5.74422e-05
5.64127e-05
5.55459e-05
5.48249e-05
5.42343e-05
5.37611e-05
5.33956e-05
5.31328e-05
5.29725e-05
5.29195e-05
5.29832e-05
5.31719e-05
5.3384e-05
5.35328e-05
5.36255e-05
5.36746e-05
5.36931e-05
5.36924e-05
5.36803e-05
5.36619e-05
5.36403e-05
5.36177e-05
5.3595e-05
5.35729e-05
5.35528e-05
5.35368e-05
5.35258e-05
5.35218e-05
5.35279e-05
5.3547e-05
5.35767e-05
5.36074e-05
5.36159e-05
5.35937e-05
5.4548e-05
8.31367e-05
8.33034e-05
8.08077e-05
7.82183e-05
7.56005e-05
7.3012e-05
7.05064e-05
6.81296e-05
6.59177e-05
6.38952e-05
6.20762e-05
6.04641e-05
5.90548e-05
5.78377e-05
5.67983e-05
5.59202e-05
5.5187e-05
5.45832e-05
5.40961e-05
5.37164e-05
5.34395e-05
5.32656e-05
5.32004e-05
5.32539e-05
5.34357e-05
5.36431e-05
5.37894e-05
5.38797e-05
5.39263e-05
5.39423e-05
5.39394e-05
5.39253e-05
5.39053e-05
5.38824e-05
5.38585e-05
5.38345e-05
5.38108e-05
5.37892e-05
5.37719e-05
5.37599e-05
5.37555e-05
5.37615e-05
5.37814e-05
5.38122e-05
5.38447e-05
5.38555e-05
5.38396e-05
5.49038e-05
8.32325e-05
8.36252e-05
8.11563e-05
7.85886e-05
7.59887e-05
7.34143e-05
7.09192e-05
6.85495e-05
6.63414e-05
6.432e-05
6.24993e-05
6.08832e-05
5.94677e-05
5.82424e-05
5.71931e-05
5.63037e-05
5.55577e-05
5.494e-05
5.44382e-05
5.40432e-05
5.37507e-05
5.35616e-05
5.34821e-05
5.35232e-05
5.36953e-05
5.3895e-05
5.40366e-05
5.41233e-05
5.41667e-05
5.418e-05
5.41746e-05
5.41587e-05
5.41373e-05
5.41131e-05
5.40878e-05
5.40624e-05
5.40369e-05
5.40135e-05
5.39947e-05
5.39815e-05
5.39763e-05
5.3982e-05
5.40023e-05
5.40338e-05
5.40679e-05
5.40814e-05
5.40732e-05
5.52504e-05
8.33159e-05
8.39487e-05
8.15071e-05
7.89617e-05
7.63803e-05
7.38207e-05
7.13368e-05
6.89749e-05
6.67715e-05
6.47517e-05
6.29298e-05
6.13101e-05
5.98887e-05
5.86553e-05
5.75961e-05
5.6695e-05
5.59358e-05
5.53037e-05
5.47863e-05
5.43749e-05
5.40654e-05
5.38593e-05
5.37635e-05
5.37898e-05
5.39495e-05
5.41382e-05
5.4273e-05
5.43544e-05
5.43938e-05
5.44039e-05
5.43962e-05
5.43785e-05
5.43559e-05
5.43304e-05
5.43038e-05
5.42768e-05
5.42493e-05
5.42237e-05
5.42033e-05
5.41887e-05
5.41824e-05
5.41874e-05
5.42076e-05
5.42394e-05
5.42746e-05
5.42917e-05
5.42921e-05
5.55845e-05
8.33854e-05
8.42733e-05
8.18595e-05
7.9337e-05
7.67747e-05
7.42306e-05
7.17586e-05
6.94051e-05
6.72069e-05
6.51893e-05
6.33668e-05
6.17438e-05
6.03165e-05
5.90752e-05
5.80059e-05
5.70929e-05
5.63202e-05
5.56729e-05
5.5139e-05
5.471e-05
5.43822e-05
5.41574e-05
5.40432e-05
5.40523e-05
5.41967e-05
5.43719e-05
5.44968e-05
5.45715e-05
5.46059e-05
5.46124e-05
5.46021e-05
5.45829e-05
5.45591e-05
5.45326e-05
5.45046e-05
5.44758e-05
5.4446e-05
5.44181e-05
5.43956e-05
5.43793e-05
5.43717e-05
5.43757e-05
5.43953e-05
5.4427e-05
5.44627e-05
5.44842e-05
5.44944e-05
5.59026e-05
8.34398e-05
8.45985e-05
8.22132e-05
7.9714e-05
7.71714e-05
7.46433e-05
7.21837e-05
6.98393e-05
6.76468e-05
6.56318e-05
6.3809e-05
6.21829e-05
6.075e-05
5.95007e-05
5.84213e-05
5.7496e-05
5.67092e-05
5.60462e-05
5.54949e-05
5.50472e-05
5.46996e-05
5.44544e-05
5.43198e-05
5.43091e-05
5.44356e-05
5.45947e-05
5.47068e-05
5.4773e-05
5.48012e-05
5.48036e-05
5.47907e-05
5.477e-05
5.47454e-05
5.47179e-05
5.46885e-05
5.46576e-05
5.46253e-05
5.45947e-05
5.45699e-05
5.45517e-05
5.45424e-05
5.4545e-05
5.45634e-05
5.45947e-05
5.46303e-05
5.4657e-05
5.46781e-05
5.62007e-05
8.34779e-05
8.4924e-05
8.25677e-05
8.00922e-05
7.75697e-05
7.50582e-05
7.26116e-05
7.02766e-05
6.80903e-05
6.60782e-05
6.42553e-05
6.26263e-05
6.11878e-05
5.99304e-05
5.88406e-05
5.79028e-05
5.71014e-05
5.64219e-05
5.58524e-05
5.53849e-05
5.50162e-05
5.47489e-05
5.45918e-05
5.4559e-05
5.46647e-05
5.48053e-05
5.49026e-05
5.49576e-05
5.49786e-05
5.49761e-05
5.49603e-05
5.49382e-05
5.49129e-05
5.48845e-05
5.48537e-05
5.48205e-05
5.47853e-05
5.47517e-05
5.47244e-05
5.47039e-05
5.46926e-05
5.46936e-05
5.47104e-05
5.47407e-05
5.47756e-05
5.48083e-05
5.48409e-05
5.64749e-05
8.34982e-05
8.52492e-05
8.29226e-05
8.04712e-05
7.79692e-05
7.54746e-05
7.30414e-05
7.07163e-05
6.85364e-05
6.65275e-05
6.47046e-05
6.30726e-05
6.16285e-05
6.03628e-05
5.92622e-05
5.83115e-05
5.7495e-05
5.67984e-05
5.62099e-05
5.57215e-05
5.53303e-05
5.50394e-05
5.48578e-05
5.48005e-05
5.48825e-05
5.50024e-05
5.5083e-05
5.51246e-05
5.51368e-05
5.51286e-05
5.51096e-05
5.50861e-05
5.50602e-05
5.50311e-05
5.49986e-05
5.49629e-05
5.49244e-05
5.48876e-05
5.48574e-05
5.48345e-05
5.48208e-05
5.48199e-05
5.48346e-05
5.48634e-05
5.48974e-05
5.49362e-05
5.49816e-05
5.67214e-05
8.34995e-05
8.55737e-05
8.32773e-05
8.08504e-05
7.83693e-05
7.5892e-05
7.34724e-05
7.11574e-05
6.89841e-05
6.69784e-05
6.51555e-05
6.35205e-05
6.20704e-05
6.07962e-05
5.96846e-05
5.87205e-05
5.78883e-05
5.71739e-05
5.65655e-05
5.60553e-05
5.56405e-05
5.53243e-05
5.51163e-05
5.50322e-05
5.50879e-05
5.51847e-05
5.52469e-05
5.52735e-05
5.52748e-05
5.52602e-05
5.52374e-05
5.52124e-05
5.5186e-05
5.51562e-05
5.5122e-05
5.50833e-05
5.50412e-05
5.50008e-05
5.49675e-05
5.49418e-05
5.49257e-05
5.49224e-05
5.49348e-05
5.49617e-05
5.49947e-05
5.50397e-05
5.50986e-05
5.69395e-05
8.34806e-05
8.58971e-05
8.36316e-05
8.12294e-05
7.87696e-05
7.63098e-05
7.3904e-05
7.15992e-05
6.94324e-05
6.74298e-05
6.56067e-05
6.39684e-05
6.25121e-05
6.12289e-05
6.01058e-05
5.91278e-05
5.82795e-05
5.75467e-05
5.69176e-05
5.63847e-05
5.59451e-05
5.56022e-05
5.53661e-05
5.52528e-05
5.52794e-05
5.53512e-05
5.53934e-05
5.54037e-05
5.53926e-05
5.537e-05
5.53429e-05
5.5316e-05
5.52891e-05
5.52587e-05
5.52224e-05
5.51805e-05
5.51343e-05
5.509e-05
5.50534e-05
5.50248e-05
5.50061e-05
5.50001e-05
5.50102e-05
5.50345e-05
5.50666e-05
5.51181e-05
5.51905e-05
5.71225e-05
8.344e-05
8.62191e-05
8.39849e-05
8.16078e-05
7.91694e-05
7.67273e-05
7.43355e-05
7.20408e-05
6.98804e-05
6.78806e-05
6.60569e-05
6.44149e-05
6.29519e-05
6.16593e-05
6.05242e-05
5.95318e-05
5.86667e-05
5.79147e-05
5.72644e-05
5.67078e-05
5.62423e-05
5.58715e-05
5.56055e-05
5.5461e-05
5.54561e-05
5.55007e-05
5.55214e-05
5.55144e-05
5.54896e-05
5.54574e-05
5.54252e-05
5.53959e-05
5.53685e-05
5.53374e-05
5.52989e-05
5.52533e-05
5.52026e-05
5.51543e-05
5.51142e-05
5.50824e-05
5.5061e-05
5.50521e-05
5.50596e-05
5.50812e-05
5.51125e-05
5.51706e-05
5.52566e-05
5.72728e-05
8.33765e-05
8.65391e-05
8.43371e-05
8.19851e-05
7.95683e-05
7.7144e-05
7.47661e-05
7.24813e-05
7.0327e-05
6.83297e-05
6.65049e-05
6.48585e-05
6.33883e-05
6.20856e-05
6.09379e-05
5.99304e-05
5.90479e-05
5.82763e-05
5.76039e-05
5.70229e-05
5.65307e-05
5.61307e-05
5.58334e-05
5.56558e-05
5.56168e-05
5.56324e-05
5.56301e-05
5.56048e-05
5.55656e-05
5.55227e-05
5.54838e-05
5.54516e-05
5.54234e-05
5.53914e-05
5.53506e-05
5.53008e-05
5.52453e-05
5.51926e-05
5.51489e-05
5.51139e-05
5.50895e-05
5.50778e-05
5.50825e-05
5.51014e-05
5.51319e-05
5.51968e-05
5.5297e-05
5.73879e-05
8.32889e-05
8.68569e-05
8.46876e-05
8.23611e-05
7.9966e-05
7.75595e-05
7.51952e-05
7.29201e-05
7.07714e-05
6.87758e-05
6.69493e-05
6.52979e-05
6.38196e-05
6.25062e-05
6.13452e-05
6.03219e-05
5.94214e-05
5.86295e-05
5.79344e-05
5.73284e-05
5.68086e-05
5.63784e-05
5.60484e-05
5.58359e-05
5.57607e-05
5.57455e-05
5.57189e-05
5.56743e-05
5.562e-05
5.55654e-05
5.55185e-05
5.54824e-05
5.54529e-05
5.542e-05
5.53766e-05
5.53223e-05
5.52616e-05
5.52045e-05
5.5157e-05
5.51186e-05
5.50913e-05
5.50767e-05
5.50785e-05
5.50947e-05
5.51245e-05
5.51959e-05
5.53097e-05
5.74668e-05
8.3176e-05
8.7172e-05
8.50363e-05
8.27353e-05
8.0362e-05
7.79731e-05
7.56223e-05
7.33563e-05
7.12126e-05
6.92181e-05
6.7389e-05
6.57317e-05
6.42445e-05
6.29193e-05
6.17442e-05
6.07045e-05
5.97853e-05
5.89724e-05
5.82541e-05
5.76224e-05
5.70744e-05
5.66132e-05
5.62494e-05
5.60004e-05
5.58868e-05
5.58393e-05
5.57873e-05
5.57226e-05
5.56523e-05
5.55855e-05
5.55295e-05
5.54879e-05
5.54566e-05
5.54227e-05
5.53764e-05
5.53175e-05
5.52512e-05
5.51895e-05
5.5138e-05
5.50963e-05
5.50659e-05
5.50485e-05
5.50473e-05
5.50609e-05
5.50903e-05
5.5168e-05
5.52953e-05
5.75067e-05
8.30365e-05
8.74841e-05
8.53827e-05
8.31074e-05
8.07559e-05
7.83845e-05
7.60467e-05
7.37893e-05
7.16499e-05
6.96556e-05
6.78228e-05
6.61585e-05
6.46613e-05
6.33236e-05
6.21334e-05
6.10765e-05
6.01379e-05
5.93034e-05
5.85614e-05
5.79035e-05
5.73266e-05
5.68338e-05
5.64352e-05
5.61484e-05
5.59947e-05
5.59133e-05
5.58349e-05
5.57492e-05
5.56624e-05
5.55827e-05
5.55167e-05
5.54683e-05
5.54342e-05
5.53991e-05
5.53497e-05
5.5286e-05
5.52139e-05
5.51476e-05
5.50921e-05
5.5047e-05
5.50135e-05
5.49931e-05
5.49889e-05
5.5e-05
5.5029e-05
5.51124e-05
5.52517e-05
5.75065e-05
8.28694e-05
8.77929e-05
8.57266e-05
8.34772e-05
8.11473e-05
7.87932e-05
7.6468e-05
7.42185e-05
7.20825e-05
7.00872e-05
6.82497e-05
6.65773e-05
6.50689e-05
6.37174e-05
6.25112e-05
6.14361e-05
6.04774e-05
5.96209e-05
5.88546e-05
5.81701e-05
5.7564e-05
5.70389e-05
5.66048e-05
5.62791e-05
5.60838e-05
5.59673e-05
5.58615e-05
5.57541e-05
5.56502e-05
5.55569e-05
5.54804e-05
5.54241e-05
5.53857e-05
5.5349e-05
5.52965e-05
5.52279e-05
5.51501e-05
5.5079e-05
5.50196e-05
5.4971e-05
5.49343e-05
5.49111e-05
5.49039e-05
5.49126e-05
5.49416e-05
5.50295e-05
5.5181e-05
5.74652e-05
8.26735e-05
8.8098e-05
8.60678e-05
8.38443e-05
8.15361e-05
7.91989e-05
7.68858e-05
7.46434e-05
7.25097e-05
7.05123e-05
6.86688e-05
6.69868e-05
6.5466e-05
6.40995e-05
6.28762e-05
6.17821e-05
6.08025e-05
5.99232e-05
5.91322e-05
5.84208e-05
5.77851e-05
5.72275e-05
5.67573e-05
5.6392e-05
5.61536e-05
5.60011e-05
5.5867e-05
5.57374e-05
5.56158e-05
5.55084e-05
5.54206e-05
5.53554e-05
5.53113e-05
5.52726e-05
5.5217e-05
5.51436e-05
5.50601e-05
5.49844e-05
5.4921e-05
5.48689e-05
5.48292e-05
5.48031e-05
5.47933e-05
5.47995e-05
5.48289e-05
5.492e-05
5.50817e-05
5.73881e-05
8.24479e-05
8.83991e-05
8.6406e-05
8.42085e-05
8.19219e-05
7.96013e-05
7.72996e-05
7.50635e-05
7.29309e-05
7.09302e-05
6.90792e-05
6.73863e-05
6.58516e-05
6.44688e-05
6.32271e-05
6.2113e-05
6.11117e-05
6.02091e-05
5.9393e-05
5.86544e-05
5.7989e-05
5.73985e-05
5.68921e-05
5.64865e-05
5.62041e-05
5.60147e-05
5.58517e-05
5.56994e-05
5.55596e-05
5.54376e-05
5.53378e-05
5.5263e-05
5.52119e-05
5.51703e-05
5.51116e-05
5.50336e-05
5.49449e-05
5.48647e-05
5.47973e-05
5.47419e-05
5.46992e-05
5.46704e-05
5.4658e-05
5.46621e-05
5.46922e-05
5.47854e-05
5.49567e-05
5.72688e-05
8.21918e-05
8.86957e-05
8.6741e-05
8.45696e-05
8.23044e-05
8.00002e-05
7.77093e-05
7.54784e-05
7.33459e-05
7.13403e-05
6.94803e-05
6.77749e-05
6.62247e-05
6.48242e-05
6.35629e-05
6.24276e-05
6.14038e-05
6.04773e-05
5.96357e-05
5.88697e-05
5.81745e-05
5.75513e-05
5.70084e-05
5.65622e-05
5.62352e-05
5.60082e-05
5.58159e-05
5.56404e-05
5.54822e-05
5.53451e-05
5.52328e-05
5.51475e-05
5.50886e-05
5.50428e-05
5.49813e-05
5.48989e-05
5.48054e-05
5.47209e-05
5.46498e-05
5.45912e-05
5.45457e-05
5.45143e-05
5.44996e-05
5.45015e-05
5.45322e-05
5.46267e-05
5.48058e-05
5.71084e-05
8.19042e-05
8.89877e-05
8.70726e-05
8.49275e-05
8.26836e-05
8.03952e-05
7.81145e-05
7.58878e-05
7.37541e-05
7.17423e-05
6.98717e-05
6.8152e-05
6.65848e-05
6.5165e-05
6.38828e-05
6.27252e-05
6.1678e-05
6.07269e-05
5.98594e-05
5.90658e-05
5.83408e-05
5.7685e-05
5.71058e-05
5.6619e-05
5.6247e-05
5.59821e-05
5.57601e-05
5.55612e-05
5.53842e-05
5.52316e-05
5.51064e-05
5.501e-05
5.49422e-05
5.48912e-05
5.48271e-05
5.47408e-05
5.4643e-05
5.45546e-05
5.44801e-05
5.44184e-05
5.43704e-05
5.43367e-05
5.43199e-05
5.432e-05
5.43512e-05
5.44456e-05
5.46309e-05
5.69091e-05
8.15845e-05
8.92747e-05
8.74007e-05
8.52819e-05
8.30592e-05
8.07864e-05
7.8515e-05
7.62917e-05
7.41554e-05
7.21358e-05
7.02529e-05
6.85173e-05
6.69313e-05
6.54907e-05
6.41861e-05
6.3005e-05
6.19334e-05
6.09572e-05
6.00634e-05
5.92421e-05
5.84875e-05
5.77992e-05
5.7184e-05
5.66567e-05
5.62397e-05
5.59367e-05
5.56849e-05
5.54625e-05
5.52665e-05
5.50983e-05
5.49598e-05
5.48518e-05
5.47742e-05
5.47167e-05
5.46503e-05
5.45606e-05
5.44593e-05
5.43674e-05
5.42899e-05
5.42255e-05
5.41752e-05
5.41395e-05
5.4121e-05
5.41196e-05
5.41512e-05
5.42448e-05
5.44344e-05
5.6676e-05
8.12322e-05
8.95563e-05
8.7725e-05
8.56327e-05
8.34312e-05
8.11736e-05
7.89109e-05
7.66899e-05
7.45497e-05
7.25208e-05
7.06239e-05
6.88705e-05
6.7264e-05
6.58008e-05
6.44724e-05
6.32666e-05
6.21696e-05
6.11675e-05
6.02471e-05
5.93981e-05
5.86139e-05
5.78935e-05
5.72428e-05
5.66756e-05
5.62138e-05
5.58729e-05
5.55912e-05
5.53453e-05
5.51303e-05
5.49463e-05
5.47942e-05
5.46743e-05
5.45861e-05
5.45212e-05
5.44524e-05
5.43601e-05
5.42561e-05
5.41612e-05
5.4081e-05
5.40144e-05
5.39621e-05
5.39247e-05
5.39047e-05
5.39023e-05
5.39343e-05
5.40263e-05
5.42188e-05
5.64095e-05
8.08468e-05
8.98322e-05
8.80455e-05
8.59799e-05
8.37995e-05
8.15567e-05
7.93022e-05
7.70824e-05
7.49371e-05
7.28973e-05
7.09846e-05
6.92117e-05
6.75829e-05
6.60954e-05
6.47415e-05
6.35097e-05
6.23864e-05
6.13576e-05
6.04102e-05
5.95333e-05
5.87199e-05
5.7968e-05
5.72824e-05
5.6676e-05
5.61698e-05
5.57913e-05
5.548e-05
5.52107e-05
5.49768e-05
5.4777e-05
5.46112e-05
5.44791e-05
5.43799e-05
5.43067e-05
5.42354e-05
5.41411e-05
5.40353e-05
5.3938e-05
5.38555e-05
5.3787e-05
5.3733e-05
5.36945e-05
5.36733e-05
5.36703e-05
5.37024e-05
5.37927e-05
5.39863e-05
5.61163e-05
8.04281e-05
9.01021e-05
8.8362e-05
8.63233e-05
8.4164e-05
8.19358e-05
7.96888e-05
7.74694e-05
7.53177e-05
7.32654e-05
7.13354e-05
6.95411e-05
6.7888e-05
6.63746e-05
6.49937e-05
6.37344e-05
6.25837e-05
6.15276e-05
6.05527e-05
5.9648e-05
5.88055e-05
5.80226e-05
5.73029e-05
5.66581e-05
5.61086e-05
5.56929e-05
5.53524e-05
5.50599e-05
5.48074e-05
5.4592e-05
5.44126e-05
5.42682e-05
5.41577e-05
5.40756e-05
5.40011e-05
5.39058e-05
5.37989e-05
5.36998e-05
5.36156e-05
5.35455e-05
5.34902e-05
5.34509e-05
5.34289e-05
5.34255e-05
5.34576e-05
5.35462e-05
5.37395e-05
5.57988e-05
7.99759e-05
9.03655e-05
8.86744e-05
8.66628e-05
8.45247e-05
8.23109e-05
8.00708e-05
7.7851e-05
7.56917e-05
7.36256e-05
7.16764e-05
6.9859e-05
6.81799e-05
6.66387e-05
6.52292e-05
6.39411e-05
6.27619e-05
6.16776e-05
6.06749e-05
5.97422e-05
5.8871e-05
5.80576e-05
5.73048e-05
5.66228e-05
5.6031e-05
5.5579e-05
5.52097e-05
5.48945e-05
5.46236e-05
5.43929e-05
5.42001e-05
5.40436e-05
5.39217e-05
5.38303e-05
5.37518e-05
5.36562e-05
5.35491e-05
5.34488e-05
5.33632e-05
5.3292e-05
5.32355e-05
5.31957e-05
5.31732e-05
5.31698e-05
5.32017e-05
5.32887e-05
5.34802e-05
5.54646e-05
7.94903e-05
9.06223e-05
8.89826e-05
8.69985e-05
8.48817e-05
8.26821e-05
8.04486e-05
7.82275e-05
7.60595e-05
7.39782e-05
7.20083e-05
7.0166e-05
6.84591e-05
6.68884e-05
6.54487e-05
6.41304e-05
6.29215e-05
6.18083e-05
6.07772e-05