/*--------------------------------*- C++ -*----------------------------------*\
  =========                 |
  \\      /  F ield         | OpenFOAM: The Open Source CFD Toolbox
   \\    /   O peration     | Website:  https://openfoam.org
    \\  /    A nd           | Version:  10
     \\/     M anipulation  |
\*---------------------------------------------------------------------------*/
FoamFile
{
    format      ascii;
    class       volScalarField;
    location    "5";
    object      omega;
}
// * * * * * * * * * * * * * * * * * * * * * * * * * * * * * * * * * * * * * //

dimensions      [0 0 -1 0 0 0 0];

internalField   nonuniform List<scalar> 
38016
(
721.437
826.743
948.231
1085.52
1239.65
1411.36
1600.95
1808.14
2031.98
2270.74
2521.9
2782.19
3047.73
3314.2
3577.16
3832.29
4075.67
4303.98
4514.69
4706.05
4877.08
5027.49
5157.69
5268.13
5360.37
5438.05
5504.39
5560.09
5607.07
5646.59
5679.88
5708.13
5732.34
5753.35
5771.83
5788.42
5803.63
5817.87
5831.49
5844.79
5858
5871.28
5884.61
5897.64
5909.64
5919.58
5926.88
5937.89
719.711
823.767
944.442
1080.8
1233.87
1404.39
1592.66
1798.39
2020.62
2257.64
2506.91
2765.17
3028.49
3292.53
3552.78
3804.82
4044.63
4268.77
4474.52
4659.94
4823.83
4965.63
5085.43
5183.36
5260.62
5323.53
5377.62
5423.32
5462.12
5495.04
5523.01
5547.01
5567.85
5586.22
5602.64
5617.62
5631.57
5644.81
5657.63
5670.25
5682.89
5695.64
5708.47
5721
5732.47
5741.78
5748.34
5758.55
717.532
820.268
940.063
1075.41
1227.35
1396.6
1583.45
1787.62
2008.16
2243.33
2490.62
2746.74
3007.76
3269.28
3526.74
3775.65
4011.88
4231.85
4432.71
4612.32
4769.28
4902.8
5012.7
5098.85
5162.15
5211.42
5254.33
5290.95
5322.4
5349.39
5372.63
5392.9
5410.79
5426.88
5441.53
5455.16
5468.07
5480.52
5492.7
5504.81
5517
5529.36
5541.8
5553.93
5564.93
5573.7
5579.61
5589.26
714.92
816.284
935.148
1069.44
1220.18
1388.09
1573.46
1776
1994.76
2228.01
2473.23
2727.13
2985.76
3244.72
3499.35
3745.13
3977.81
4193.72
4389.86
4563.92
4714.35
4840.13
4940.88
5016.26
5066.97
5104.09
5137.12
5165.79
5190.85
5212.75
5231.95
5249.03
5264.45
5278.64
5291.84
5304.37
5316.44
5328.23
5339.88
5351.52
5363.28
5375.21
5387.21
5398.85
5409.33
5417.52
5422.73
5431.67
711.887
811.82
929.704
1062.88
1212.36
1378.86
1562.67
1763.5
1980.39
2211.62
2454.67
2706.26
2962.43
3218.72
3470.47
3713.08
3942.22
4154.11
4345.64
4514.37
4658.57
4777.09
4869.33
4934.8
4974.07
5000.3
5024.55
5046.22
5065.69
5083.15
5098.86
5113.22
5126.53
5139.1
5151.08
5162.68
5174.02
5185.22
5196.35
5207.52
5218.8
5230.24
5241.72
5252.81
5262.73
5270.3
5274.69
5282.65
708.442
806.879
923.721
1055.71
1203.86
1368.87
1551.02
1750.04
1964.95
2194.05
2434.81
2683.96
2937.52
3191.03
3439.78
3679.1
3904.63
4112.47
4299.4
4462.88
4601.02
4712.52
4796.66
4852.81
4881.45
4897.65
4913.9
4929.23
4943.67
4957.16
4969.76
4981.71
4993.17
5004.32
5015.22
5025.98
5036.65
5047.28
5057.89
5068.55
5079.3
5090.17
5101.04
5111.52
5120.81
5127.75
5131.26
5138.19
704.6
801.468
917.202
1047.94
1194.67
1358.09
1538.49
1735.59
1948.41
2175.24
2413.58
2660.13
2910.93
3161.5
3407.1
3643.01
3864.79
4068.5
4250.8
4409.03
4541.19
4645.87
4722.2
4769.46
4788.1
4794.96
4803.82
4813.33
4823.2
4833.09
4842.9
4852.69
4862.49
4872.38
4882.31
4892.31
4902.37
4912.45
4922.54
4932.67
4942.86
4953.14
4963.4
4973.24
4981.93
4988.27
4990.97
4997.09
700.378
795.605
910.168
1039.58
1184.81
1346.57
1525.11
1720.17
1930.78
2155.23
2390.99
2634.79
2882.67
3130.13
3372.41
3604.76
3822.68
4022.15
4199.77
4352.76
4479.04
4577.06
4645.87
4684.68
4693.91
4692.09
4694.15
4698.34
4704.04
4710.69
4717.99
4725.85
4734.17
4742.94
4752
4761.32
4770.8
4780.35
4789.93
4799.53
4809.16
4818.83
4828.47
4837.69
4845.79
4851.6
4853.57
4859.19
695.793
789.308
902.641
1030.65
1174.32
1334.31
1510.91
1703.83
1912.11
2134.03
2367.07
2607.97
2852.76
3096.94
3335.75
3564.38
3778.31
3973.46
4146.34
4294.13
4414.61
4506.18
4567.78
4598.59
4599.05
4589.22
4585.05
4584.41
4586.36
4590.1
4595.16
4601.31
4608.33
4616.11
4624.4
4633.1
4642.04
4651.08
4660.15
4669.21
4678.28
4687.36
4696.37
4705
4712.55
4717.89
4719.26
4724.68
690.867
782.599
894.646
1021.2
1163.22
1321.38
1495.93
1686.6
1892.43
2111.7
2341.88
2579.72
2821.25
3061.98
3297.14
3521.9
3731.72
3922.45
4090.58
4233.18
4348
4433.33
4488.07
4511.36
4503.69
4486.52
4476.69
4471.71
4470.3
4471.46
4474.55
4479.2
4485.08
4491.99
4499.6
4507.74
4516.17
4524.73
4533.3
4541.83
4550.33
4558.82
4567.24
4575.29
4582.33
4587.29
4588.15
4593.72
685.618
775.5
886.209
1011.25
1151.56
1307.79
1480.22
1668.53
1871.79
2088.27
2315.46
2550.07
2788.17
3025.29
3256.62
3477.37
3682.95
3869.19
4032.53
4170.01
4279.3
4358.64
4406.87
4423.14
4408
4384.16
4369.24
4360.38
4356.01
4354.91
4356.28
4359.63
4364.53
4370.68
4377.7
4385.32
4393.28
4401.37
4409.45
4417.46
4425.41
4433.33
4441.18
4448.68
4455.27
4459.89
4460.38
4466.4
680.068
768.035
877.357
1000.82
1139.35
1293.6
1463.8
1649.67
1850.24
2063.8
2287.84
2519.08
2753.59
2986.91
3214.26
3430.84
3632.06
3813.74
3972.29
4104.71
4208.62
4282.23
4324.34
4334.11
4312.16
4282.32
4262.87
4250.59
4243.63
4240.57
4240.46
4242.71
4246.77
4252.27
4258.76
4265.92
4273.43
4281.07
4288.68
4296.18
4303.6
4310.96
4318.27
4325.28
4331.46
4335.8
4335.99
4342.79
674.238
760.224
868.115
989.956
1126.65
1278.83
1446.73
1630.05
1827.82
2038.33
2259.09
2486.8
2717.55
2946.9
3170.1
3382.37
3579.12
3756.18
3909.95
4037.39
4136.11
4204.28
4240.67
4244.46
4216.37
4181.17
4157.74
4142.48
4133.3
4128.57
4127.23
4128.55
4131.9
4136.85
4142.88
4149.62
4156.72
4163.92
4171.06
4178.08
4184.98
4191.82
4198.62
4205.17
4210.98
4215.1
4215.08
4222.93
668.15
752.093
858.512
978.682
1113.49
1263.54
1429.06
1609.73
1804.59
2011.93
2229.25
2453.29
2680.11
2905.33
3124.23
3332.05
3524.23
3696.62
3845.62
3968.2
4061.93
4124.96
4156.04
4154.39
4120.82
4080.92
4054.02
4036.22
4025.16
4019.05
4016.68
4017.24
4020.02
4024.5
4030.14
4036.49
4043.2
4049.99
4056.68
4063.23
4069.64
4075.99
4082.31
4088.45
4093.94
4097.84
4097.68
4106.87
661.826
743.665
848.575
967.031
1099.89
1247.75
1410.81
1588.75
1780.59
1984.63
2198.38
2418.59
2641.35
2862.28
3076.72
3279.96
3467.49
3635.18
3779.46
3897.3
3986.25
4044.46
4070.67
4064.12
4025.72
3981.74
3951.89
3931.96
3919.35
3912.12
3908.93
3908.9
3911.21
3915.32
3920.6
3926.61
3932.95
3939.34
3945.61
3951.71
3957.66
3963.54
3969.43
3975.19
3980.39
3984.11
3983.86
3994.62
655.289
734.963
838.332
955.035
1085.9
1231.52
1392.05
1567.16
1755.88
1956.5
2166.54
2382.78
2601.33
2817.83
3027.68
3226.23
3409.03
3572.01
3711.63
3824.87
3909.29
3963.01
3984.79
3973.88
3931.3
3883.84
3851.51
3829.84
3816
3807.9
3804.1
3803.61
3805.57
3809.37
3814.36
3820.05
3826.05
3832.06
3837.93
3843.6
3849.11
3854.56
3860.05
3865.48
3870.42
3873.98
3873.68
3886.25
648.56
726.011
827.81
942.726
1071.56
1214.87
1372.81
1545.02
1730.53
1927.61
2133.81
2345.93
2560.11
2772.06
2977.2
3170.96
3348.99
3507.26
3642.3
3751.11
3831.25
3880.86
3898.65
3883.92
3837.77
3787.41
3753.06
3730.01
3715.25
3706.5
3702.27
3701.46
3703.17
3706.73
3711.47
3716.88
3722.55
3728.21
3733.69
3738.96
3744.06
3749.11
3754.24
3759.37
3764.1
3767.49
3767.18
3781.79
641.661
716.833
817.039
930.137
1056.9
1197.86
1353.14
1522.38
1704.57
1898.01
2100.25
2308.11
2517.79
2725.06
2925.4
3114.31
3287.52
3441.12
3571.68
3676.24
3752.4
3798.25
3812.51
3794.49
3745.37
3692.65
3656.71
3632.63
3617.21
3608.05
3603.55
3602.55
3604.1
3607.47
3612
3617.15
3622.53
3627.85
3632.97
3637.87
3642.59
3647.27
3652.08
3656.94
3661.47
3664.7
3664.4
3681.25
634.615
707.452
806.043
917.299
1041.96
1180.52
1333.1
1499.29
1678.08
1867.77
2065.93
2269.4
2474.46
2676.92
2872.36
3056.4
3224.81
3373.78
3499.98
3600.52
3672.98
3715.46
3726.64
3705.86
3654.34
3599.76
3562.62
3537.83
3522.01
3512.64
3508.03
3506.95
3508.41
3511.66
3516.02
3520.94
3526.04
3531.04
3535.84
3540.38
3544.75
3549.11
3553.63
3558.24
3562.61
3565.68
3565.41
3584.69
627.444
697.892
794.852
904.244
1026.77
1162.9
1312.72
1475.8
1651.12
1836.97
2030.93
2229.91
2430.21
2627.75
2818.23
2997.33
3160.99
3305.46
3427.46
3524.19
3593.28
3632.77
3641.34
3618.3
3564.92
3508.96
3470.98
3445.77
3429.77
3420.37
3415.79
3414.74
3416.19
3419.37
3423.58
3428.31
3433.15
3437.86
3442.34
3446.56
3450.62
3454.68
3458.95
3463.34
3467.58
3470.47
3470.26
3492.16
620.169
688.174
783.49
891.001
1011.38
1145.04
1292.05
1451.96
1623.74
1805.66
1995.34
2189.72
2385.17
2577.7
2763.12
2937.27
3096.2
3236.28
3354.33
3447.54
3513.57
3550.48
3556.9
3532.08
3477.37
3420.45
3381.96
3356.57
3340.62
3331.35
3326.93
3325.99
3327.5
3330.65
3334.76
3339.3
3343.91
3348.36
3352.56
3356.49
3360.26
3364.05
3368.1
3372.29
3376.41
3379.14
3379.01
3403.7
612.811
678.321
771.985
877.602
995.802
1126.98
1271.15
1427.84
1596.01
1773.94
1959.25
2148.93
2339.44
2526.89
2707.21
2876.39
3030.62
3166.42
3280.71
3370.75
3434.15
3468.89
3473.6
3447.5
3391.91
3334.45
3295.72
3270.39
3254.66
3245.68
3241.51
3240.78
3242.39
3245.55
3249.59
3253.98
3258.38
3262.6
3266.54
3270.21
3273.74
3277.28
3281.14
3285.16
3289.17
3291.75
3291.7
3319.33
605.39
668.354
760.36
864.075
980.087
1108.75
1250.05
1403.49
1568
1741.87
1922.74
2107.65
2293.16
2475.47
2650.66
2814.87
2964.46
3096.1
3206.82
3293.97
3355.17
3388.29
3391.75
3364.83
3308.81
3251.17
3212.45
3187.36
3172
3163.43
3159.62
3159.15
3160.93
3164.14
3168.13
3172.39
3176.62
3180.63
3184.35
3187.79
3191.1
3194.44
3198.12
3202
3205.9
3208.34
3208.39
3239.1
597.929
658.293
748.641
850.45
964.265
1090.4
1228.81
1378.96
1539.77
1709.53
1885.91
2066
2246.45
2423.59
2593.65
2752.92
2897.94
3025.54
3132.89
3217.42
3276.77
3308.77
3311.61
3284.32
3228.3
3170.8
3132.31
3107.62
3092.76
3084.7
3081.33
3081.19
3083.16
3086.46
3090.43
3094.6
3098.68
3102.51
3106.04
3109.28
3112.4
3115.58
3119.11
3122.87
3126.66
3128.98
3129.11
3163.03
590.444
648.159
736.85
836.754
948.368
1071.97
1207.47
1354.31
1511.38
1677
1848.85
2024.09
2199.46
2371.42
2536.36
2690.74
2831.29
2955
3059.18
3141.35
3199.18
3230.47
3233.25
3206.23
3150.6
3093.57
3055.48
3031.31
3017.05
3009.57
3006.71
3006.93
3009.14
3012.55
3016.53
3020.63
3024.6
3028.29
3031.66
3034.75
3037.71
3040.75
3044.16
3047.81
3051.5
3053.7
3053.93
3091.14
582.957
637.971
725.011
823.014
932.428
1053.49
1186.07
1329.59
1482.92
1644.36
1811.66
1982.04
2152.32
2319.12
2478.97
2628.55
2764.74
2884.72
2985.94
3066.01
3122.64
3153.58
3156.77
3130.66
3075.93
3019.66
2982.12
2958.57
2944.98
2938.14
2935.82
2936.44
2938.91
2942.46
2946.48
2950.55
2954.44
2958.02
2961.27
2964.23
2967.08
2970
2973.31
2976.86
2980.48
2982.56
2982.88
3023.46
575.485
627.747
713.144
809.254
916.476
1035
1164.67
1304.85
1454.43
1611.71
1774.45
1939.97
2105.18
2266.85
2421.7
2566.56
2698.53
2814.95
2913.42
2991.65
3047.4
3078.34
3082.32
3057.61
3004.49
2949.26
2912.41
2889.54
2876.65
2870.48
2868.72
2869.76
2872.52
2876.23
2880.31
2884.38
2888.23
2891.74
2894.91
2897.77
2900.54
2903.38
2906.62
2910.06
2913.61
2915.58
2915.99
2959.97
568.047
617.504
701.271
795.5
900.54
1016.54
1143.3
1280.16
1426
1579.11
1737.32
1898
2058.19
2214.8
2364.72
2504.99
2632.88
2745.93
2841.87
2918.52
2973.66
3004.95
3010.09
2987.18
2936.19
2882.54
2846.5
2824.35
2812.18
2806.69
2805.5
2806.96
2810.01
2813.9
2818.08
2822.18
2826.02
2829.51
2832.63
2835.45
2838.17
2840.95
2844.14
2847.5
2850.99
2852.86
2853.38
2900.78
560.659
607.259
689.41
781.774
884.649
998.141
1122.01
1255.57
1397.68
1546.66
1700.37
1856.26
2011.5
2163.13
2308.24
2444.04
2568.03
2677.89
2771.53
2846.85
2901.66
2933.59
2940.22
2919.48
2871.05
2819.64
2784.54
2763.14
2751.68
2746.84
2746.2
2748.08
2751.42
2755.51
2759.81
2763.98
2767.86
2771.36
2774.48
2777.29
2780.01
2782.75
2785.93
2789.21
2792.64
2794.43
2795.08
2845.88
553.339
597.027
677.579
768.098
868.83
979.835
1100.83
1231.12
1369.54
1514.43
1663.69
1814.87
1965.24
2112.02
2252.44
2383.94
2504.19
2611.08
2702.62
2776.85
2831.6
2864.45
2872.89
2854.62
2809.14
2760.54
2726.64
2706.03
2695.24
2691.02
2690.89
2693.16
2696.78
2701.07
2705.53
2709.8
2713.76
2717.32
2720.49
2723.32
2726.07
2728.82
2731.98
2735.22
2738.56
2740.33
2741.08
2795.22
546.102
586.822
665.796
754.493
853.106
961.654
1079.82
1206.87
1341.65
1482.51
1627.4
1773.95
1919.57
2061.61
2197.51
2324.89
2441.59
2545.7
2635.37
2708.72
2763.65
2797.7
2808.21
2792.72
2750.47
2705.01
2672.92
2653.11
2642.97
2639.3
2639.63
2642.25
2646.12
2650.63
2655.26
2659.67
2663.75
2667.42
2670.68
2673.59
2676.39
2679.18
2682.35
2685.56
2688.81
2690.58
2691.45
2748.85
538.963
576.658
654.076
740.978
837.502
943.627
1059
1182.87
1314.06
1450.97
1591.58
1733.62
1874.62
2012.09
2143.64
2267.07
2380.43
2481.96
2569.97
2642.67
2698
2733.47
2746.3
2733.85
2695.1
2653.09
2623.38
2604.49
2594.95
2591.76
2592.47
2595.38
2599.49
2604.2
2609.03
2613.62
2617.86
2621.69
2625.08
2628.11
2631.01
2633.89
2637.07
2640.28
2643.42
2645.27
2646.2
2706.75
531.938
566.547
642.434
727.569
822.039
925.783
1038.41
1159.16
1286.85
1419.89
1556.34
1694
1830.53
1963.59
2090.98
2210.67
2320.9
2420.06
2506.61
2578.86
2634.79
2671.89
2687.27
2678.1
2643.07
2604.69
2577.63
2560.22
2551.26
2548.46
2549.47
2552.59
2556.88
2561.8
2566.85
2571.65
2576.11
2580.15
2583.72
2586.92
2589.95
2592.95
2596.18
2599.42
2602.45
2604.39
2605.38
2668.89
525.04
556.502
630.883
714.284
806.739
908.147
1018.09
1135.79
1260.06
1389.34
1521.75
1655.18
1787.41
1916.27
2039.69
2155.86
2263.16
2360.16
2445.45
2517.44
2574.15
2613.07
2631.2
2625.51
2594.43
2559.81
2535.64
2520.23
2511.94
2509.47
2510.67
2513.92
2518.33
2523.44
2528.74
2533.8
2538.51
2542.82
2546.62
2550.03
2553.25
2556.4
2559.73
2563.01
2565.96
2568.03
2569.09
2635.38
518.282
546.532
619.435
701.137
791.618
890.744
998.069
1112.79
1233.74
1359.38
1487.9
1617.27
1745.4
1870.24
1989.93
2102.78
2207.38
2302.42
2386.64
2458.54
2516.21
2557.11
2578.16
2576.14
2549.18
2518.45
2497.26
2484.1
2477.02
2474.8
2476.1
2479.37
2483.84
2489.13
2494.7
2500.06
2505.09
2509.71
2513.79
2517.45
2520.9
2524.24
2527.7
2531.03
2533.96
2536.15
2537.29
2606.22
511.678
536.648
608.101
688.141
776.694
873.594
978.37
1090.21
1207.95
1330.09
1454.86
1580.35
1704.58
1825.64
1941.81
2051.58
2153.69
2246.98
2330.31
2402.29
2461.05
2504.07
2528.19
2530
2507.35
2480.62
2462.49
2451.71
2446.23
2444.48
2445.78
2448.96
2453.42
2458.86
2464.72
2470.44
2475.83
2480.83
2485.24
2489.2
2492.92
2496.46
2500.11
2503.5
2506.44
2508.75
2510.01
2581.26
505.239
526.856
596.891
675.307
761.981
856.717
959.023
1068.08
1182.72
1301.5
1422.71
1544.52
1665.05
1782.56
1895.45
2002.37
2102.21
2193.95
2276.57
2348.77
2408.76
2454.03
2481.34
2487.13
2468.92
2446.29
2431.3
2422.94
2419.27
2418.52
2419.72
2422.7
2427.05
2432.62
2438.82
2444.95
2450.77
2456.18
2460.98
2465.26
2469.29
2473.08
2476.92
2480.37
2483.34
2485.76
2487.15
2560.53
498.977
517.167
585.812
662.646
747.493
840.131
940.049
1046.42
1158.11
1273.68
1391.51
1509.83
1626.91
1741.09
1850.94
1955.26
2053.04
2143.42
2225.49
2298.06
2359.39
2407.01
2437.62
2447.51
2433.9
2415.45
2403.66
2397.77
2395.97
2396.43
2397.93
2400.59
2404.73
2410.4
2416.96
2423.57
2429.89
2435.78
2441.01
2445.67
2450.03
2454.1
2458.14
2461.71
2464.71
2467.28
2468.82
2544.13
492.903
507.585
574.873
650.165
733.239
823.848
921.467
1025.27
1134.13
1246.67
1361.3
1476.36
1590.2
1701.31
1808.37
1910.31
2006.26
2095.48
2177.16
2250.21
2312.99
2363.04
2397.05
2411.15
2402.26
2388.06
2379.54
2376.18
2376.27
2378.09
2380.29
2382.64
2386.45
2392.18
2399.16
2406.33
2413.21
2419.65
2425.34
2430.42
2435.14
2439.51
2443.78
2447.47
2450.52
2453.24
2454.96
2532.04
487.028
498.117
564.078
637.873
719.229
807.881
903.294
1004.64
1110.83
1220.49
1332.13
1444.14
1554.99
1663.28
1767.79
1867.59
1961.93
2050.16
2131.61
2205.27
2269.59
2322.15
2359.63
2378.02
2373.99
2364.11
2358.92
2358.12
2360.16
2363.39
2366.46
2368.89
2372.23
2377.98
2385.4
2393.2
2400.74
2407.78
2414
2419.53
2424.64
2429.35
2433.83
2437.68
2440.78
2443.65
2445.56
2524.15
481.361
488.768
553.434
625.773
705.469
792.239
885.542
984.56
1088.21
1195.18
1304.02
1413.22
1521.33
1627.03
1729.26
1827.15
1920.08
2007.52
2088.88
2163.26
2229.19
2284.33
2325.34
2348.12
2349.04
2343.55
2341.75
2343.58
2347.62
2352.31
2356.41
2359.25
2362.1
2367.78
2375.69
2384.21
2392.48
2400.19
2406.98
2413.02
2418.56
2423.62
2428.35
2432.35
2435.53
2438.53
2440.63
2520.5
475.912
479.543
542.944
613.872
691.965
776.929
868.22
965.03
1066.3
1170.76
1277.01
1383.63
1489.23
1592.61
1692.79
1789.01
1880.75
1967.57
2048.98
2124.18
2191.8
2249.56
2294.16
2321.4
2327.38
2326.35
2328.01
2332.52
2338.61
2344.85
2350.05
2353.46
2356.09
2361.61
2370.03
2379.34
2388.45
2396.9
2404.32
2410.9
2416.9
2422.34
2427.35
2431.53
2434.82
2437.93
2440.26
2521.14
470.689
470.445
532.61
602.171
678.719
761.953
851.332
946.06
1045.1
1147.23
1251.11
1355.37
1458.71
1560.03
1658.4
1753.19
1843.94
1930.31
2011.91
2088.03
2157.41
2217.85
2266.07
2297.84
2308.97
2312.47
2317.65
2324.91
2333.13
2340.98
2347.37
2351.56
2354.27
2359.47
2368.44
2378.6
2388.65
2397.9
2406.01
2413.19
2419.68
2425.53
2430.83
2435.18
2438.61
2441.75
2444.33
2526.18
465.701
461.477
522.436
590.672
665.733
747.315
834.882
927.653
1024.62
1124.61
1226.32
1328.45
1429.78
1529.27
1626.09
1719.67
1809.63
1895.73
1977.65
2054.8
2125.99
2189.14
2241.04
2277.38
2293.77
2301.86
2310.63
2320.72
2331.15
2340.71
2348.39
2353.52
2356.58
2361.39
2370.92
2381.99
2393.07
2403.2
2412.07
2419.89
2426.92
2433.21
2438.83
2443.38
2446.97
2450.14
2452.92
2535.4
460.957
452.642
512.421
579.375
653.007
733.013
818.867
909.808
1004.86
1102.88
1202.63
1302.86
1402.43
1500.34
1595.84
1688.43
1777.82
1863.81
1946.18
2024.44
2097.51
2163.41
2219.01
2259.99
2281.72
2294.47
2306.92
2319.92
2332.64
2344.01
2353.1
2359.29
2362.87
2367.42
2377.49
2389.52
2401.7
2412.79
2422.48
2431
2438.63
2445.41
2451.42
2456.21
2460
2463.22
2466.16
2548.93
456.463
443.941
502.567
568.279
640.538
719.044
803.283
892.518
985.803
1082.04
1180.03
1278.59
1376.62
1473.2
1567.62
1659.45
1748.45
1834.5
1917.45
1996.92
2071.92
2140.62
2199.95
2245.6
2272.78
2290.27
2306.48
2322.46
2337.58
2350.87
2361.49
2368.88
2373.14
2377.6
2388.14
2401.17
2414.54
2426.65
2437.23
2446.5
2454.77
2462.08
2468.5
2473.59
2477.6
2480.91
2483.98
2566.71
452.227
435.376
492.873
557.383
628.323
705.401
788.122
875.771
967.439
1062.06
1158.5
1255.6
1352.33
1447.81
1541.39
1632.67
1721.48
1807.75
1891.42
1972.18
2049.19
2120.7
2183.79
2234.17
2266.88
2289.18
2309.25
2328.33
2345.94
2361.27
2373.56
2382.29
2387.42
2392
2402.87
2416.94
2431.54
2444.75
2456.27
2466.35
2475.3
2483.18
2490.04
2495.47
2499.73
2503.13
2506.35
2588.8
448.256
426.947
483.338
546.685
616.358
692.079
773.373
859.554
949.748
1042.93
1138
1233.87
1329.52
1424.13
1517.09
1608.04
1696.84
1783.5
1868.02
1950.18
2029.24
2103.62
2170.5
2225.65
2263.97
2291.17
2315.19
2337.47
2357.7
2375.19
2389.29
2399.51
2405.73
2410.69
2421.7
2436.81
2452.69
2467.05
2479.57
2490.51
2500.17
2508.66
2515.98
2521.79
2526.32
2529.86
2533.24
2615.06
444.556
418.656
473.96
536.18
604.636
679.068
759.023
843.849
932.705
1024.61
1118.5
1213.33
1308.13
1402.09
1494.65
1585.48
1674.47
1761.69
1847.18
1930.83
2012.02
2089.3
2159.99
2219.95
2263.98
2296.17
2324.25
2349.85
2372.83
2392.62
2408.66
2420.54
2428.1
2433.7
2444.64
2460.76
2477.94
2493.51
2507.08
2518.91
2529.32
2538.43
2546.24
2552.46
2557.28
2560.99
2564.54
2645.51
441.133
410.502
464.739
525.865
593.151
666.356
745.058
828.634
916.283
1007.07
1099.96
1193.95
1288.09
1381.63
1474
1564.91
1654.29
1742.22
1828.83
1914.07
1997.45
2077.67
2152.21
2217.02
2266.85
2304.12
2336.38
2365.42
2391.27
2413.51
2431.66
2445.36
2454.45
2460.9
2471.7
2488.79
2507.26
2524.08
2538.73
2551.49
2562.65
2572.41
2580.71
2587.36
2592.48
2596.43
2600.16
2680.01
437.993
402.486
455.672
515.735
581.894
653.934
731.458
813.884
900.45
990.254
1082.32
1175.65
1269.35
1362.66
1455.06
1546.26
1636.2
1725.01
1812.86
1899.8
1985.45
2068.66
2147.08
2216.79
2272.5
2314.95
2351.51
2384.13
2413
2437.82
2458.24
2473.93
2484.76
2492.26
2502.92
2520.87
2540.61
2558.7
2574.46
2588.16
2600.08
2610.48
2619.26
2626.34
2631.77
2635.99
2639.91
2718.55
435.141
394.608
446.756
505.786
570.859
641.786
718.207
799.575
885.17
974.133
1065.52
1158.37
1251.81
1345.11
1437.73
1529.41
1620.1
1709.95
1799.2
1887.95
1975.94
2062.19
2144.52
2219.17
2280.86
2328.59
2369.58
2405.92
2437.95
2465.52
2488.36
2506.22
2518.98
2527.72
2538.34
2556.99
2577.95
2597.32
2614.21
2628.84
2641.51
2652.52
2661.77
2669.23
2674.97
2679.49
2683.58
2761.03
432.582
386.867
437.988
496.012
560.036
629.901
705.283
785.676
870.405
958.651
1049.51
1142.05
1235.41
1328.87
1421.91
1514.26
1605.88
1696.95
1787.72
1878.39
1968.83
2058.17
2144.45
2224.09
2291.82
2344.96
2390.5
2430.72
2466.06
2496.53
2521.97
2542.18
2557.05
2567.27
2578.03
2597.14
2619.25
2639.9
2657.92
2673.49
2686.89
2698.48
2708.15
2715.94
2721.95
2726.78
2730.92
2807.34
430.321
379.263
429.366
486.408
549.416
618.264
692.665
772.16
856.116
943.757
1034.22
1126.59
1220.04
1313.85
1407.49
1500.7
1593.43
1685.87
1778.32
1871.04
1964
2056.5
2146.78
2231.44
2305.31
2363.95
2414.21
2458.45
2497.26
2530.79
2558.99
2581.71
2598.89
2610.87
2622.07
2641.33
2664.49
2686.42
2705.6
2722.1
2736.23
2748.34
2758.41
2766.48
2772.74
2777.92
2781.99
2857.47
428.361
371.796
420.888
476.968
538.991
606.86
680.333
758.994
842.26
929.398
1019.58
1111.93
1205.62
1299.94
1394.36
1488.6
1582.61
1676.59
1770.87
1865.76
1961.34
2057.08
2151.4
2241.13
2321.21
2385.47
2440.58
2489
2531.46
2568.21
2599.33
2624.74
2644.4
2658.49
2670.56
2689.55
2713.66
2736.86
2757.21
2774.67
2789.52
2802.15
2812.6
2820.89
2827.38
2832.93
2836.75
2911.65
426.707
364.465
412.549
467.688
528.75
595.675
668.264
746.149
828.795
915.518
1005.52
1097.97
1192.04
1287.02
1382.39
1477.83
1573.3
1668.98
1765.23
1862.42
1960.72
2059.77
2158.18
2253.03
2339.4
2409.4
2469.51
2522.29
2568.55
2608.68
2642.88
2671.14
2693.46
2709.94
2723.26
2741.82
2766.74
2791.21
2812.8
2831.25
2846.88
2860.04
2870.88
2879.4
2886.11
2892.09
2895.51
2970.05
425.361
357.27
404.348
458.562
518.685
584.695
656.436
733.593
815.679
902.059
991.98
1084.63
1179.2
1274.99
1371.45
1468.25
1565.34
1662.88
1761.25
1860.87
1962.01
2064.45
2167.01
2267.02
2359.75
2435.6
2500.87
2558.16
2608.4
2652.08
2689.51
2720.78
2745.92
2765.02
2779.95
2798.12
2823.71
2849.45
2872.34
2891.88
2908.39
2922.17
2933.47
2942.27
2949.27
2955.75
2958.67
3033.07
424.327
350.211
396.282
449.585
508.788
573.905
644.829
721.294
802.869
888.966
978.876
1071.82
1167
1263.72
1361.41
1459.72
1558.58
1658.14
1758.78
1860.97
1965.05
2070.96
2177.73
2282.94
2382.1
2463.92
2534.49
2596.47
2650.86
2698.25
2739.07
2773.5
2801.62
2823.51
2840.35
2858.43
2884.48
2911.52
2935.8
2956.58
2974.13
2988.68
3000.58
3009.8
3017.2
3024.28
3026.74
3100.9
423.606
343.286
388.347
440.752
499.049
563.292
633.421
709.223
790.321
876.182
966.14
1059.44
1155.33
1253.08
1352.12
1452.09
1552.86
1654.59
1757.65
1862.53
1969.67
2079.13
2190.18
2300.64
2406.27
2494.17
2570.2
2637.04
2695.75
2747.02
2791.38
2829.12
2860.36
2885.19
2904.26
2922.71
2948.93
2977.24
3003.05
3025.24
3044.01
3059.55
3072.26
3082.1
3090.07
3097.84
3099.97
3173.51
423.202
336.497
380.541
432.058
489.462
552.844
622.193
697.351
777.997
863.652
953.698
1047.42
1144.07
1242.95
1343.45
1445.18
1548.01
1652.04
1757.66
1865.37
1975.68
2088.79
2204.16
2319.92
2432.08
2526.16
2607.8
2679.68
2742.88
2798.19
2846.24
2887.43
2921.93
2949.85
2971.5
2990.92
3016.86
3046.37
3073.77
3097.55
3117.76
3134.52
3148.26
3158.94
3167.68
3176.23
3178.22
3250.41
423.114
329.842
372.862
423.498
480.017
542.547
611.126
685.649
765.854
851.321
941.482
1035.66
1133.13
1233.19
1335.24
1438.85
1543.85
1650.32
1758.62
1869.28
1982.88
2099.73
2219.49
2340.58
2459.31
2559.67
2647.08
2724.15
2792.02
2851.54
2903.43
2948.2
2986.09
3017.23
3041.8
3062.67
3088.09
3118.57
3147.59
3173.05
3194.84
3213
3227.94
3239.65
3249.29
3258.74
3260.73
3331.21
423.345
323.323
365.307
415.07
470.709
532.392
600.202
674.091
753.859
839.14
929.424
1024.08
1122.4
1223.7
1327.35
1432.92
1540.19
1649.22
1760.33
1874.07
1991.06
2111.73
2235.95
2362.4
2487.74
2594.47
2687.78
2770.22
2842.93
2906.82
2962.71
3011.19
3052.61
3087.11
3114.83
3137.61
3162.54
3193.6
3224.13
3251.33
3274.78
3294.46
3310.71
3323.58
3334.21
3344.69
3346.66
3415.26
423.892
316.938
357.874
406.768
461.531
522.366
589.405
662.655
741.975
827.063
917.463
1012.59
1111.77
1214.33
1319.65
1427.25
1536.87
1648.55
1762.58
1879.51
2000
2124.58
2253.31
2385.15
2517.11
2630.3
2729.64
2817.61
2895.34
2963.77
3023.8
3076.13
3121.2
3159.2
3190.26
3215.39
3240.23
3271.32
3303.18
3332.11
3357.3
3378.62
3396.31
3410.49
3422.22
3433.87
3435.91
3502.36
424.758
310.689
350.561
398.589
452.478
512.463
578.722
651.32
730.175
815.048
905.543
1001.13
1101.17
1204.99
1311.99
1421.66
1533.71
1648.13
1765.18
1885.4
2009.47
2138.05
2271.33
2408.59
2547.17
2666.9
2772.41
2866.07
2948.98
3022.1
3086.42
3142.73
3191.57
3233.2
3267.74
3295.72
3321.23
3351.67
3384.54
3415.13
3442.1
3465.18
3484.45
3500.08
3513.06
3526.03
3528.31
3592.4
425.938
304.575
343.366
390.531
443.546
502.674
568.144
640.07
718.434
803.061
893.618
989.625
1090.49
1195.58
1304.25
1416.01
1530.53
1647.75
1767.91
1891.5
2019.26
2151.89
2289.79
2432.47
2577.67
2704
2815.78
2915.28
3003.53
3081.51
3150.26
3210.68
3263.4
3308.76
3346.92
3378.14
3405.06
3434.65
3468.09
3500.16
3528.9
3553.82
3574.83
3592.06
3606.45
3620.89
3623.64
3685.18
427.434
298.6
336.29
382.596
434.738
493.008
557.677
628.916
706.766
791.118
881.704
978.102
1079.77
1186.09
1296.46
1410.34
1527.37
1647.47
1770.81
1897.89
2029.43
2166.21
2308.78
2456.93
2608.77
2741.76
2859.95
2965.44
3059.21
3142.22
3215.56
3280.22
3336.94
3386.15
3428.05
3462.81
3491.89
3520.94
3554.33
3587.59
3618.02
3644.81
3667.65
3686.63
3702.57
3718.65
3722.07
3780.92
429.242
292.763
329.332
374.783
426.052
483.458
547.316
617.847
695.154
779.195
869.766
966.512
1068.94
1176.47
1288.5
1404.51
1524.09
1647.11
1773.72
1904.37
2039.78
2180.8
2328.11
2481.76
2640.23
2779.96
2904.67
3016.32
3115.78
3203.99
3282.08
3351.11
3411.94
3465.1
3510.85
3549.37
3581.38
3610.78
3643.37
3677.38
3709.3
3737.93
3762.68
3783.52
3801.14
3819.03
3823.34
3879.36
431.359
287.066
322.491
367.09
417.486
474.023
537.055
606.856
683.587
767.271
857.777
954.814
1057.95
1166.63
1280.3
1398.41
1520.55
1646.53
1776.46
1910.76
2050.13
2195.46
2347.57
2506.74
2671.82
2818.34
2949.69
3067.63
3172.95
3266.54
3349.53
3423.07
3488.12
3545.33
3595.04
3637.44
3672.91
3703.73
3735.42
3769.6
3802.7
3833.04
3859.72
3882.49
3901.9
3921.76
3927.21
3980.28
433.781
281.51
315.766
359.515
409.039
464.699
526.89
595.935
672.052
755.333
845.714
942.973
1046.74
1156.52
1271.76
1391.94
1516.62
1645.57
1778.86
1916.86
2060.26
2209.97
2366.92
2531.64
2703.31
2856.66
2994.74
3119.11
3230.45
3329.57
3417.62
3495.8
3565.19
3626.53
3680.28
3726.68
3765.96
3799.29
3830.78
3864.41
3898.25
3930.07
3958.62
3983.36
4004.63
4026.6
4033.48
4083.46
436.504
276.096
309.156
352.057
400.708
455.485
516.819
585.08
660.545
743.368
833.558
930.964
1035.28
1146.07
1262.82
1385
1512.18
1644.1
1780.76
1922.5
2069.98
2224.13
2385.96
2556.21
2734.44
2894.64
3039.53
3170.46
3287.96
3392.79
3486.06
3569.02
3642.84
3708.4
3766.26
3816.73
3860.03
3896.76
3929.35
3962.11
3996.11
4029.05
4059.31
4085.99
4109.15
4133.33
4141.94
4188.71
439.521
270.826
302.659
344.715
392.492
446.378
506.839
574.289
649.059
731.368
821.295
918.765
1023.54
1135.25
1253.4
1377.52
1507.14
1641.98
1782.01
1927.5
2079.09
2237.71
2404.45
2580.24
2764.97
2932.03
3083.79
3221.39
3345.2
3455.88
3554.51
3642.39
3720.76
3790.61
3852.65
3907.25
3954.67
3995.25
4030.29
4063.09
4096.54
4130.14
4161.83
4190.35
4215.36
4241.79
4252.43
4295.89
442.828
265.702
296.274
337.487
384.391
437.38
496.951
563.561
637.593
719.329
808.919
906.361
1011.49
1124
1243.46
1369.41
1501.39
1639.1
1782.46
1931.69
2087.4
2250.51
2422.17
2603.47
2794.63
2968.54
3127.22
3271.58
3401.82
3518.51
3622.67
3715.59
3798.61
3872.84
3939.09
3997.87
4049.47
4094.18
4132.69
4166.91
4199.96
4233.63
4266.35
4296.51
4323.24
4351.9
4364.84
4404.81
446.416
260.724
290.001
330.374
376.404
428.489
487.154
552.895
626.146
707.249
796.423
893.741
999.119
1112.31
1232.96
1360.61
1494.84
1635.33
1781.97
1934.92
2094.74
2262.33
2438.89
2625.67
2823.17
3003.9
3169.53
3320.73
3457.52
3580.35
3690.18
3788.29
3876.07
3954.74
4025.26
4088.23
4144.04
4192.97
4235.48
4272.66
4306.71
4339.93
4373.17
4404.64
4432.93
4463.66
4479.14
4515.47
450.28
255.896
283.839
323.374
368.53
419.705
477.449
542.294
614.721
695.129
783.808
880.904
986.41
1100.16
1221.84
1351.07
1487.44
1630.6
1780.42
1937.03
2100.91
2272.96
2454.4
2646.61
2850.35
3037.85
3210.43
3368.52
3511.97
3641.07
3756.71
3860.13
3952.78
4035.98
4110.8
4177.98
4238
4291.18
4337.9
4378.82
4415.36
4449.53
4482.72
4515.09
4544.65
4577.17
4595.33
4627.77
454.409
251.22
277.786
316.485
360.77
411.029
467.837
531.759
603.32
682.974
771.076
867.849
973.362
1087.53
1210.11
1340.76
1479.11
1624.81
1777.71
1937.88
2105.77
2282.23
2468.5
2666.05
2875.91
3070.1
3249.63
3414.65
3564.84
3700.33
3821.9
3930.78
4028.41
4116.21
4195.36
4266.76
4330.98
4388.41
4439.4
4484.47
4524.51
4561.02
4595.47
4628.27
4658.8
4692.72
4713.63
4741.97
458.795
246.697
271.842
309.707
353.122
402.461
458.32
521.294
591.947
670.788
758.234
854.581
959.978
1074.42
1197.73
1329.64
1469.81
1617.9
1773.74
1937.37
2109.17
2289.97
2480.99
2683.79
2899.63
3100.42
3286.85
3458.82
3615.81
3757.79
3885.43
3999.88
4102.61
4195.08
4278.62
4354.23
4422.63
4484.27
4539.54
4588.87
4632.96
4672.8
4709.7
4744.32
4775.77
4810.56
4834.2
4858.32
463.43
242.329
266.006
303.04
345.586
394.002
448.899
510.9
580.608
658.579
745.29
841.109
946.263
1060.83
1184.71
1317.7
1459.51
1609.82
1768.43
1935.37
2110.98
2296
2491.67
2699.62
2921.26
3128.54
3321.81
3500.73
3664.57
3813.13
3946.95
4067.1
4175.04
4272.27
4360.22
4440.05
4512.59
4578.41
4637.91
4691.52
4739.81
4783.56
4823.72
4860.99
4894.82
4930.85
4957.18
4977.15
468.302
238.12
260.277
296.481
338.162
385.652
439.577
500.584
569.309
646.355
732.255
827.445
932.231
1046.77
1171.05
1304.94
1448.18
1600.51
1761.73
1931.82
2111.07
2300.2
2500.4
2713.35
2940.62
3154.25
3354.26
3540.11
3710.82