/*--------------------------------*- C++ -*----------------------------------*\
  =========                 |
  \\      /  F ield         | OpenFOAM: The Open Source CFD Toolbox
   \\    /   O peration     | Website:  https://openfoam.org
    \\  /    A nd           | Version:  10
     \\/     M anipulation  |
\*---------------------------------------------------------------------------*/
FoamFile
{
    format      ascii;
    class       volScalarField;
    location    "5";
    object      p;
}
// * * * * * * * * * * * * * * * * * * * * * * * * * * * * * * * * * * * * * //

dimensions      [0 2 -2 0 0 0 0];

internalField   nonuniform List<scalar> 
38016
(
0.251416
0.502376
0.709176
0.972818
1.33387
1.75288
2.35061
3.08188
4.09393
5.45513
7.19854
9.51447
12.4708
16.0817
20.3532
25.3171
30.6733
36.169
41.6949
47.0214
51.9885
56.7027
63.4759
68.934
84.838
115.259
172.551
248.464
343.532
451.833
566.979
684
798.648
907.625
1008.56
1100.1
1181.51
1252.47
1313.13
1363.92
1405.52
1438.68
1464.29
1483.15
1495.71
1501.34
1499.46
1500.21
0.259915
0.498238
0.699659
0.958268
1.31313
1.72549
2.31507
3.03773
4.0406
5.39237
7.12769
9.43776
12.3905
16.0018
20.2754
25.24
30.5907
36.0718
41.5639
46.8261
51.6941
56.2785
62.8254
68.0771
83.7586
114.234
171.784
248.433
344.554
454.195
570.893
689.59
805.954
916.652
1019.26
1112.43
1195.4
1267.86
1329.98
1382.17
1425.09
1459.52
1486.3
1506.23
1519.79
1526.52
1527.11
1532.22
0.268338
0.49388
0.689708
0.943146
1.29163
1.69706
2.2782
2.99195
3.98509
5.32684
7.05347
9.35677
12.305
15.9155
20.1899
25.1534
30.4969
35.9615
41.4173
46.6127
51.3788
55.832
62.1456
67.198
82.6533
113.22
171.03
248.435
345.607
456.566
574.773
695.077
813.058
925.354
1029.5
1124.13
1208.49
1282.28
1345.68
1399.11
1443.23
1478.82
1506.72
1527.77
1542.52
1551.12
1555.74
1566.26
0.276878
0.489579
0.679928
0.92818
1.2703
1.66886
2.24159
2.94655
3.93002
5.26186
6.97999
9.27663
12.2206
15.8305
20.106
25.0687
30.4051
35.8534
41.2723
46.3998
51.0617
55.3812
61.4501
66.2963
81.4384
112.04
170.014
248.086
346.196
458.338
577.905
699.644
819.056
932.742
1038.2
1134.07
1219.6
1294.5
1358.97
1413.46
1458.62
1495.25
1524.24
1546.47
1562.76
1573.95
1583.29
1598.94
0.285392
0.485255
0.670047
0.913164
1.24891
1.64061
2.20491
2.90113
3.87489
5.19682
6.9065
9.19644
12.1362
15.7454
20.0222
24.9838
30.3129
35.7447
41.1259
46.1842
50.7396
54.9222
60.7342
65.3615
80.1505
110.748
168.805
247.464
346.406
459.608
580.394
703.412
824.084
938.977
1045.56
1142.48
1228.98
1304.81
1370.19
1425.58
1471.67
1509.29
1539.37
1562.95
1581.12
1595.33
1609.12
1628.76
0.29405
0.48101
0.660309
0.898248
1.2276
1.61245
2.1683
2.85582
3.81985
5.13188
6.83315
9.11637
12.052
15.6605
19.9387
24.899
30.2207
35.6359
40.9786
45.9666
50.4134
54.4562
60.0024
64.402
78.8021
109.357
167.428
246.595
346.266
460.402
582.263
706.396
828.146
944.05
1051.56
1149.32
1236.6
1313.18
1379.31
1435.47
1482.38
1520.94
1552.16
1577.23
1597.47
1614.64
1632.1
1654.46
0.302691
0.476766
0.650477
0.883294
1.20624
1.58425
2.13163
2.8105
3.76478
5.06689
6.75981
9.03628
11.9678
15.5755
19.8552
24.8142
30.1284
35.5269
40.8306
45.7473
50.0838
53.9841
59.2555
63.4176
77.3931
107.865
165.872
245.461
345.749
460.684
583.468
708.544
831.187
947.905
1056.15
1154.56
1242.43
1319.6
1386.32
1443.14
1490.82
1530.31
1562.71
1589.32
1611.6
1631.32
1651.57
1675.53
0.311471
0.472604
0.640794
0.868442
1.18495
1.55614
2.09504
2.76529
3.7098
5.002
6.6866
8.95632
11.8838
15.4907
19.772
24.7297
30.0364
35.4182
40.6824
45.5271
49.7515
53.5063
58.4952
62.4087
75.9263
106.268
164.135
244.051
344.838
460.43
583.975
709.815
833.159
950.491
1059.26
1158.13
1246.43
1324.02
1391.22
1448.61
1497
1537.39
1570.97
1599.06
1623.13
1644.87
1667.06
1691.74
0.320239
0.468448
0.631012
0.853552
1.16362
1.528
2.0584
2.72005
3.65477
4.93707
6.61338
8.87633
11.7999
15.406
19.689
24.6453
29.9445
35.3096
40.5341
45.306
49.417
53.0235
57.7226
61.3764
74.4022
104.565
162.213
242.356
343.517
459.615
583.751
710.17
834.017
951.76
1060.87
1160.01
1248.57
1326.45
1394.02
1451.9
1500.94
1542.2
1576.86
1606.26
1631.75
1654.94
1678.32
1703.09
0.32914
0.464365
0.621384
0.838765
1.14237
1.49995
2.02183
2.6749
3.59984
4.87222
6.54027
8.79644
11.7161
15.3215
19.6063
24.5614
29.8532
35.2017
40.3862
45.085
49.0815
52.5369
56.9401
60.322
72.8246
102.755
160.104
240.367
341.769
458.216
582.767
709.571
833.723
951.674
1060.93
1160.17
1248.83
1326.89
1394.73
1453.03
1502.67
1544.71
1580.31
1610.73
1637.25
1661.34
1685.36
1709.8
0.338033
0.460298
0.611655
0.823939
1.12108
1.47186
1.98521
2.62972
3.54485
4.80731
6.46713
8.71651
11.6322
15.2369
19.5238
24.4776
29.7623
35.0945
40.239
44.8645
48.7457
52.0478
56.1495
59.2484
71.1957
100.841
157.806
238.077
339.58
456.211
580.993
707.986
832.24
950.202
1059.42
1158.6
1247.24
1325.36
1393.4
1452.05
1502.19
1544.87
1581.19
1612.32
1639.48
1664.04
1688.27
1712.13
0.34705
0.456297
0.602087
0.809215
1.09986
1.44386
1.94865
2.58461
3.48994
4.74248
6.39407
8.63667
11.5485
15.1526
19.4416
24.3944
29.6722
34.9885
40.0932
44.6456
48.4111
51.558
55.3541
58.1583
69.5214
98.824
155.321
235.48
336.939
453.583
578.407
705.389
829.546
947.326
1056.33
1155.31
1243.81
1321.91
1390.06
1448.97
1499.51
1542.64
1579.42
1610.96
1638.4
1663.09
1687.22
1710.36
0.356067
0.452317
0.592413
0.794451
1.0786
1.41582
1.91204
2.53946
3.43497
4.67756
6.32095
8.55674
11.4648
15.0682
19.3596
24.3115
29.5828
34.8837
39.9491
44.4289
48.0791
51.0694
54.5565
57.056
67.8059
96.7079
152.649
232.572
333.836
450.316
574.988
701.758
825.621
943.04
1051.68
1150.33
1238.59
1316.58
1384.77
1443.84
1494.6
1537.98
1574.96
1606.61
1634.05
1658.6
1682.43
1704.77
0.365203
0.448395
0.582904
0.77979
1.05743
1.38787
1.8755
2.49437
3.38005
4.61269
6.24788
8.47686
11.3812
14.984
19.2779
24.2293
29.4946
34.7808
39.8076
44.2157
47.7514
50.5846
53.7613
55.9459
66.0573
94.4982
149.796
229.353
330.263
446.398
570.722
697.081
820.461
937.351
1045.48
1143.69
1231.63
1309.44
1377.56
1436.65
1487.45
1530.84
1567.76
1599.27
1626.49
1650.72
1674.1
1695.63
0.374344
0.444504
0.573287
0.765088
1.0362
1.35986
1.83889
2.44921
3.32506
4.5477
6.17469
8.39683
11.2974
14.8998
19.1965
24.1477
29.4075
34.6799
39.6692
44.007
47.4297
50.1063
52.9722
54.8343
64.2827
92.2026
146.767
225.823
326.218
441.821
565.599
691.352
814.069
930.275
1037.77
1135.45
1222.99
1300.52
1368.46
1427.4
1478.04
1521.21
1557.85
1589.01
1615.84
1639.61
1662.46
1683.19
0.383598
0.440666
0.563842
0.750488
1.01506
1.33195
1.80234
2.4041
3.27009
4.48273
6.10149
8.31678
11.2136
14.8157
19.1154
24.0667
29.3219
34.5815
39.5349
43.8042
47.1165
49.6377
52.195
53.7276
62.4929
89.83
143.57
221.988
321.701
436.585
559.62
684.575
806.463
921.846
1028.6
1125.66
1212.71
1289.86
1357.48
1416.09
1466.36
1509.1
1545.25
1575.91
1602.22
1625.46
1647.72
1667.66
0.392867
0.436863
0.554282
0.735847
0.993875
1.30398
1.76572
2.3589
3.21502
4.41759
6.02811
8.23651
11.1297
14.7314
19.0345
23.9865
29.2379
34.486
39.4052
43.6087
46.8139
49.1825
51.4347
52.6339
60.698
87.3924
140.217
217.855
316.715
430.69
552.788
676.764
797.665
912.102
1018.02
1114.38
1200.85
1277.5
1344.63
1402.73
1452.42
1494.53
1530.05
1560.08
1585.79
1608.42
1630.07
1649.25
0.402242
0.433105
0.544901
0.721309
0.972772
1.27609
1.72915
2.31374
3.15995
4.35241
5.95464
8.1561
11.0456
14.6471
18.9538
23.9071
29.1557
34.3941
39.2813
43.4223
46.5248
48.7447
50.6985
51.562
58.9119
84.903
136.721
213.434
311.27
424.147
545.118
667.941
787.712
901.096
1006.09
1101.66
1187.45
1263.46
1329.93
1387.31
1436.24
1477.57
1512.32
1541.64
1566.68
1588.69
1609.7
1628.17
0.411636
0.429393
0.535401
0.70673
0.951618
1.24814
1.69249
2.26845
3.10472
4.28702
5.8809
8.07535
10.9611
14.5626
18.8733
23.8284
29.0756
34.306
39.1641
43.2464
46.252
48.3289
49.9928
50.5221
57.1479
82.378
133.098
208.741
305.377
416.968
536.628
658.136
776.648
888.879
992.864
1087.56
1172.55
1247.76
1313.38
1369.86
1417.86
1458.28
1492.18
1520.72
1545.05
1566.41
1586.78
1604.55
0.421126
0.425722
0.526087
0.692252
0.93055
1.22026
1.65587
2.22317
3.04945
4.2215
5.80697
7.99433
10.8764
14.4778
18.7929
23.7507
28.9979
34.2225
39.0548
43.0834
45.9989
47.9401
49.3261
49.5252
55.4231
79.8352
129.368
203.793
299.056
409.177
527.348
647.386
764.523
875.511
978.402
1072.12
1156.16
1230.4
1295
1350.41
1397.34
1436.76
1469.74
1497.46
1521.08
1541.77
1561.52
1578.64
0.430648
0.422104
0.516648
0.677733
0.909427
1.19232
1.61915
2.17774
2.99398
4.15568
5.73264
7.9128
10.7911
14.3926
18.7125
23.6738
28.9226
34.144
38.9545
42.9351
45.7688
47.5837
48.7063
48.5835
53.7538
77.2948
125.551
198.611
292.328
400.797
517.308
635.737
751.388
861.044
962.748
1055.36
1138.31
1211.4
1274.81
1329.01
1374.78
1413.11
1445.13
1472.01
1494.91
1514.97
1534.11
1550.62
0.440257
0.418518
0.507399
0.663316
0.888386
1.16444
1.58245
2.13228
2.9384
4.08965
5.65798
7.83081
10.7053
14.307
18.6321
23.5979
28.8501
34.0714
38.8645
42.804
45.5658
47.2655
48.1429
47.71
52.1596
74.7787
121.672
193.219
285.218
391.86
506.548
623.235
737.296
845.529
945.941
1037.32
1119
1190.79
1252.85
1305.72
1350.24
1387.45
1418.49
1444.54
1466.72
1486.15
1504.7
1520.64
0.449905
0.414999
0.498021
0.648855
0.867288
1.13648
1.54562
2.08663
2.88254
4.02321
5.58277
7.7481
10.6186
14.2206
18.5514
23.5228
28.7806
34.005
38.7861
42.6921
45.3935
46.9918
47.6453
46.9185
50.6591
72.31
117.755
187.645
277.756
382.4
495.107
609.927
722.296
829.007
928.008
1018
1098.27
1168.58
1229.17
1280.63
1323.85
1359.9
1389.96
1415.17
1436.66
1455.5
1473.49
1488.89
0.45963
0.411507
0.488841
0.634492
0.846268
1.10856
1.50879
2.04089
2.82651
3.95643
5.50705
7.66468
10.5312
14.1335
18.4705
23.4486
28.7144
33.9457
38.7207
42.6025
45.2564
46.769
47.2238
46.2233
49.2735
69.913
113.828
181.916
269.973
372.452
483.03
595.861
706.432
811.512
908.969
997.418
1076.11
1144.82
1203.84
1253.81
1295.7
1330.6
1359.68
1384.09
1404.91
1423.18
1440.64
1455.56
0.469407
0.408087
0.479523
0.620086
0.825185
1.08056
1.47181
1.99492
2.77012
3.88912
5.43058
7.58027
10.4425
14.0452
18.3889
23.3751
28.6514
33.894
38.6697
42.5373
45.1586
46.6038
46.8881
45.6389
48.0224
67.6118
109.916
176.06
261.9
362.053
470.356
581.075
689.736
793.063
888.83
975.582
1052.54
1119.54
1176.91
1225.38
1265.93
1299.69
1327.82
1351.45
1371.63
1389.36
1406.31
1420.77
0.479253
0.404685
0.470408
0.605778
0.804174
1.05258
1.43479
1.94881
2.71345
3.82133
5.35337
7.49483
10.3526
13.9557
18.3066
23.3023
28.5922
33.8507
38.6347
42.4996
45.1049
46.5033
46.649
45.1798
46.9267
65.4305
106.045
170.106
253.568
351.237
457.122
565.606
672.234
773.671
867.594
952.495
1027.61
1092.8
1148.48
1195.42
1234.65
1267.31
1294.53
1317.42
1337
1354.22
1370.71
1384.74
0.489155
0.401368
0.46115
0.591421
0.783094
1.0245
1.39759
1.90241
2.65633
3.75284
5.27517
7.40806
10.2611
13.8646
18.2231
23.2298
28.5364
33.8161
38.6168
42.4917
45.0994
46.4743
46.5163
44.8601
46.005
63.3915
102.239
164.077
245.005
340.034
443.356
549.472
653.934
753.332
845.256
928.165
1001.32
1064.64
1118.61
1164.04
1201.99
1233.58
1259.93
1282.13
1301.14
1317.9
1333.95
1347.6
0.499111
0.398066
0.452103
0.57716
0.762081
0.996427
1.36032
1.8558
2.59883
3.68369
5.19596
7.31988
10.1678
13.7716
18.1384
23.1577
28.4844
33.7909
38.6175
42.5165
45.1467
46.5235
46.4999
44.6932
45.2758
61.5155
98.5183
157.995
236.232
328.465
429.077
532.687
634.834
732.036
821.806
902.595
973.701
1035.12
1087.38
1131.33
1168.05
1198.63
1224.18
1245.74
1264.25
1280.6
1296.28
1309.62
0.50914
0.394854
0.442904
0.562848
0.740988
0.968228
1.32283
1.80882
2.54075
3.61366
5.11548
7.22995
10.0723
13.6763
18.0518
23.0854
28.4359
33.7754
38.638
42.5761
45.2506
46.6573
46.6085
44.6912
44.7539
59.8205
94.8979
151.874
227.261
316.54
414.289
515.242
614.916
709.761
797.232
875.792
944.79
1004.29
1054.85
1097.38
1132.91
1162.54
1187.35
1208.33
1226.4
1242.4
1257.77
1270.84
0.519213
0.391647
0.43392
0.548628
0.719954
0.940019
1.28523
1.76157
2.48216
3.54277
5.03367
7.13817
9.97452
13.5785
17.9631
23.0127
28.391
33.77
38.6793
42.6731
45.4149
46.8812
46.8498
44.8643
44.4521
58.3213
91.3915
145.721
218.098
304.258
398.985
497.116
594.153
686.479
771.518
847.759
914.608
972.184
1021.09
1062.23
1096.64
1125.39
1149.5
1169.95
1187.62
1203.31
1218.38
1231.23
0.529367
0.388546
0.424778
0.534353
0.698831
0.91166
1.24737
1.71388
2.42286
3.47078
4.95025
7.04415
9.87387
13.4775
17.8717
22.9391
28.3491
33.7747
38.7422
42.8089
45.6425
47.1998
47.2296
45.2198
44.3781
57.027
88.0055
139.537
208.733
291.603
383.135
478.272
572.499
662.155
744.647
818.5
883.181
938.852
986.15
1025.96
1059.31
1087.22
1110.71
1130.68
1148
1163.43
1178.27
1190.92
0.53955
0.385446
0.415858
0.520164
0.677757
0.883266
1.20935
1.66583
2.36291
3.3977
4.86516
6.94777
9.77013
13.373
17.777
22.8641
28.3101
33.7895
38.8272
42.985
45.9357
47.6164
47.7515
45.7618
44.5357
55.9419
84.7445
133.318
199.147
278.541
366.696
458.656
549.903
636.746
716.595
788.014
850.522
904.322
950.054
988.596
1020.94
1048.08
1070.98
1090.53
1107.53
1122.73
1137.36
1149.85
0.549834
0.382456
0.406769
0.505916
0.656583
0.854698
1.17103
1.61725
2.30211
3.32329
4.77808
6.84859
9.66277
13.2644
17.6785
22.7869
28.2731
33.8138
38.9342
43.2019
46.2955
48.1325
48.4165
46.4902
44.9212
55.0611
81.6033
127.055
189.311
265.025
349.603
438.195
526.295
610.203
687.335
756.295
816.645
868.615
912.836
950.165
981.553
1007.96
1030.32
1049.46
1066.16
1081.15
1095.59
1107.93
0.560135
0.379457
0.397908
0.491751
0.635447
0.826068
1.1325
1.56822
2.24051
3.24755
4.68894
6.74646
9.5515
13.1513
17.5754
22.7068
28.2376
33.8472
39.063
43.4596
46.7219
48.7478
49.2223
47.4001
45.5254
54.372
78.5693
120.738
179.198
250.999
331.782
416.809
501.603
582.468
656.835
723.331
781.556
831.747
874.518
910.692
941.18
966.902
988.731
1007.48
1023.88
1038.63
1052.82
1064.93
0.57054
0.376583
0.388871
0.477521
0.614198
0.797237
1.09362
1.51857
2.1779
3.17023
4.59742
6.64094
9.43574
13.0328
17.4668
22.6228
28.2022
33.8884
39.2124
43.7567
47.213
49.4592
50.1626
48.4809
46.3304
53.852
75.616
114.349
168.785
236.412
313.155
394.408
475.742
553.479
625.05
689.102
745.247
793.723
835.11
870.193
899.835
924.915
946.264
964.658
980.791
995.358
1009.36
1021.32
0.58094
0.373697
0.380067
0.463367
0.592977
0.768317
1.05448
1.46839
2.11434
3.09132
4.50342
6.53184
9.31515
12.9084
17.3521
22.5339
28.166
33.936
39.3806
44.0911
47.7652
50.261
51.2272
49.7162
47.311
53.4705
72.707
107.851
158.051
221.233
293.664
370.915
448.634
523.168
591.938
653.577
707.706
754.536
794.616
828.678
857.543
882.036
902.954
921.026
936.922
951.313
965.141
976.975
0.591467
0.370942
0.371075
0.449143
0.571632
0.739171
1.01494
1.4175
2.04962
3.01058
4.40663
6.4187
9.18911
12.7774
17.23
22.4387
28.1271
33.988
39.5651
44.4589
48.3729
51.1441
52.401
51.0826
48.4325
53.1854
69.7935
101.195
146.951
205.432
273.279
346.279
420.218
491.479
557.448
616.725
668.908
714.173
753.026
786.144
814.299
838.274
858.826
876.656
892.401
906.714
920.473
932.238
0.601975
0.368166
0.362322
0.43499
0.5503
0.709908
0.975097
1.366
1.9838
2.928
4.30694
6.30134
9.05724
12.639
17.0998
22.336
28.0838
34.0418
39.7623
44.8551
49.0281
52.0961
53.6641
52.5504
49.6528
52.9473
66.8216
94.3242
135.434
188.968
251.985
320.495
390.47
458.375
521.545
578.511
628.825
672.612
710.322
742.574
770.086
793.59
813.801
831.38
846.94
861.113
874.716
886.357
0.612619
0.365537
0.353374
0.420761
0.528832
0.680393
0.934807
1.3137
1.91667
2.84334
4.20406
6.17928
8.91891
12.4925
16.96
22.224
28.0336
34.0942
39.9676
45.2727
49.7202
53.1008
54.9912
54.0827
50.9202
52.6958
63.7263
87.1754
123.439
171.783
229.737
293.56
359.39
423.843
484.204
538.903
587.42
629.814
666.467
697.941
724.894
748.014
767.974
785.403
800.886
815.038
828.616
840.217
0.62322
0.362883
0.344669
0.406596
0.507368
0.650737
0.894165
1.26069
1.8483
2.75662
4.09789
6.05235
8.77373
12.3372
16.8098
22.101
27.9742
34.1415
40.1754
45.7032
50.436
54.1383
56.3522
55.6363
52.1768
52.3643
60.4391
79.6786
110.904
153.83
206.484
265.446
326.985
387.878
445.409
497.867
544.645
585.714
621.377
652.131
678.577
701.353
721.087
738.375
753.772
767.88
781.399
792.957
0.633983
0.360382
0.335757
0.39235
0.485757
0.620805
0.853038
1.20683
1.77851
2.6676
3.98814
5.92011
8.62107
12.172
16.6475
21.965
27.9022
34.1792
40.3789
46.1361
51.1596
55.1845
57.7116
57.1614
53.3565
51.8782
56.8834
71.7603
97.7682
135.07
182.187
236.107
293.241
350.473
405.138
455.372
500.448
540.246
574.971
605.053
631.029
653.491
673.026
690.202
705.552
719.661
733.175
744.716
0.644687
0.357846
0.327094
0.378164
0.464137
0.590711
0.811522
1.1522
1.70735
2.57631
3.87475
5.78239
8.46055
11.9963
16.4721
21.814
27.8146
34.202
40.5701
46.5592
51.8725
56.2119
59.0297
58.6037
54.3895
51.1602
52.9839
63.3539
83.9788
115.472
156.836
205.525
258.14
311.62
363.365
411.371
454.764
493.322
527.153
556.605
582.149
604.322
623.669
640.717
655.977
670.017
683.435
694.875
0.655556
0.35548
0.318217
0.36389
0.442361
0.56032
0.769487
1.09664
1.63466
2.48254
3.75746
5.6388
8.29157
11.8091
16.2819
21.6456
27.7075
34.2042
40.7399
46.9582
52.5533
57.1896
60.2627
59.9038
55.201
50.1289
48.6614
54.3927
69.4813
95.0055
130.43
173.695
221.662
271.306
320.062
365.808
407.507
444.83
477.777
506.621
531.766
553.701
572.925
589.94
605.226
619.335
632.819
644.292
0.66633
0.353075
0.309593
0.349669
0.420568
0.52975
0.727035
1.04027
1.56052
2.38635
3.63625
5.48919
8.11379
11.6098
16.0757
21.4573
27.577
34.1792
40.878
47.3177
53.1787
58.0839
61.3637
61.0005
55.7163
48.7051
43.8431
44.8188
54.2287
73.6449
102.982
140.637
183.803
229.515
275.198
318.629
358.6
394.657
426.695
454.896
479.605
501.254
520.307
537.23
552.486
566.608
580.102
591.566
0.6773
0.350848
0.300742
0.335358
0.398612
0.498869
0.68404
0.982936
1.48479
2.28756
3.51089
5.33326
7.92669
11.3974
15.8519
21.2467
27.4187
34.1201
40.9734
47.6204
53.7234
58.8587
62.284
61.8304
55.8597
46.8101
38.4582
34.5804
38.1928
51.3865
74.518
106.397
144.593
186.248
228.758
269.795
307.981
342.727
373.82
401.349
425.591
446.92
465.758
482.535
497.693
511.746
525.153
536.512
0.688156
0.348575
0.292151
0.321096
0.376631
0.467798
0.640612
0.92476
1.40756
2.18626
3.38143
5.17092
7.72998
11.1713
15.6092
21.0111
27.228
34.0194
41.0141
47.8481
54.1608
59.477
62.9741
62.332
55.56
44.3733
32.4471
23.6392
21.3657
28.2451
45.0737
71.0377
104.094
141.539
180.744
219.282
255.595
288.96
319.047
345.855
369.588
390.563
409.157
425.767
440.809
454.782
468.095
479.323
0.699218
0.346497
0.283325
0.306739
0.354484
0.436407
0.596631
0.865609
1.32871
2.08231
3.24768
5.00192
7.52325
10.9306
15.3461
20.7479
27.0004
33.8693
40.9877
47.982
54.4634
59.901
63.3853
62.4452
54.7502
41.3292
25.7575
11.9666
3.7471
4.22919
14.6808
34.6362
62.3887
95.4522
131.191
167.087
201.408
233.291
262.289
288.302
311.462
332.027
350.328
366.727
381.615
395.473
408.663
419.738
0.710129
0.344372
0.274764
0.292427
0.332308
0.40482
0.552212
0.805611
1.24836
1.97582
3.10974
4.82629
7.30633
10.6749
15.0612
20.4545
26.7313
33.662
40.8816
48.0029
54.6043
60.0942
63.4713
62.1157
53.3722
37.6253
18.3527
-0.448584
-14.6419
-20.6151
-16.5945
-2.71601
19.5853
48.0797
80.1636
113.243
145.422
175.691
203.486
228.61
251.114
271.198
289.143
305.274
319.957
333.653
346.673
357.537
0.721282
0.342451
0.265957
0.278018
0.309963
0.372912
0.507243
0.74465
1.1664
1.8667
2.9675
4.64387
7.07893
10.4034
14.7534
20.1284
26.4158
33.3896
40.6834
47.8921
54.557
60.0217
63.1895
61.2945
51.3761
33.2186
10.2067
-13.6054
-33.7691
-46.2189
-48.6674
-40.9234
-24.1962
-0.463872
27.76
57.827
87.6825
116.177
142.629
166.74
188.481
207.99
225.499
241.295
255.713
269.195
282.004
292.619
0.732261
0.340476
0.257422
0.263655
0.287588
0.340809
0.461846
0.682863
1.08299
1.7551
2.82112
4.45476
6.84103
10.116
14.4216
19.7675
26.0499
33.0447
40.3811
47.6321
54.2971
59.6523
62.5028
59.942
48.7248
28.0824
1.31168
-27.4841
-53.5816
-72.4997
-81.4624
-79.8962
-68.8165
-50.0235
-25.8693
0.974345
28.31
54.8504
79.7963
102.747
123.593
142.408
159.373
174.735
188.8
201.988
214.508
224.794
0.743484
0.338726
0.248633
0.249189
0.265046
0.30839
0.415913
0.620148
0.998031
1.64097
2.67054
4.25891
6.59248
9.812
14.0648
19.3694
25.6294
32.6204
39.9636
47.2063
53.8027
58.9587
61.3805
58.027
45.3926
22.2025
-8.32742
-42.0521
-74.0142
-99.36
-114.86
-119.506
-114.116
-100.397
-80.5102
-57.1031
-32.4867
-8.08274
15.1952
36.8417
56.6635
74.6699
90.9865
105.822
119.447
132.26
144.419
154.301
0.75448
0.336922
0.240124
0.23477
0.242474
0.275784
0.369573
0.556652
0.911697
1.52448
2.51599
4.05655
6.33344
9.4915
13.6824
18.9325
25.1509
32.1104
39.4212
46.6011
53.0557
57.9193
59.8004
55.5305
41.369
15.5822
-18.6868
-57.2584
-94.9837
-126.686
-148.708
-159.601
-159.935
-151.355
-135.897
-116.12
-94.4075
-72.3092
-50.847
-30.6315
-11.9416
5.16508
20.758
35.002
48.1323
60.5208
72.2705
81.6927
0.765765
0.335357
0.23135
0.220246
0.219741
0.242873
0.322724
0.492286
0.823925
1.40563
2.35749
3.84771
6.06393
9.1543
13.2739
18.4554
24.6114
31.5095
38.7457
45.8049
52.0417
56.5185
57.7482
52.4435
36.6557
8.23798
-29.7303
-73.0407
-116.397
-154.354
-182.859
-200.035
-206.115
-202.676
-191.728
-175.722
-157.058
-137.402
-117.874
-99.1911
-81.7154
-65.5747
-50.7521
-37.1311
-24.5088
-12.5438
-1.17057
7.84329
0.776793
0.333736
0.222864
0.205772
0.196981
0.20979
0.275502
0.427205
0.734898
1.28462
2.19531
3.63272
5.78428
8.80061
12.839
17.9372
24.0087
30.814
37.9311
44.8096
50.7516
54.7479
55.2196
48.7703
31.27
0.203467
-41.4043
-89.3207
-138.147
-182.225
-217.149
-240.623
-252.489
-254.17
-247.707
-235.514
-219.962
-202.811
-185.269
-168.162
-151.938
-136.794
-122.772
-109.799
-97.712
-86.1939
-75.2153
-66.6485
0.788122
0.332377
0.214108
0.191191
0.174069
0.176417
0.227807
0.361329
0.644568
1.16148
2.02953
3.41173
5.49468
8.43058
12.3778
17.3773
23.3415
30.021
36.9735
43.6105
49.1809
52.6058
52.219
44.5254
25.241
-8.47623
-53.6446
-106.011
-160.119
-210.155
-251.41
-281.178
-298.889
-305.687
-303.609
-295.139
-282.632
-267.93
-252.314
-236.709
-221.655
-207.423
-194.107
-181.684
-170.025
-158.842
-148.123
-139.854
0.799139
0.330966
0.205648
0.176665
0.151135
0.142889
0.179777
0.294818
0.553129
1.03643
1.86046
3.18514
5.19563
8.04474
11.8906
16.7758
22.6094
29.1296
35.8712
42.2065
47.3309
50.0981
48.7609
39.7357
18.6112
-17.7414
-66.3734
-123.013
-182.187
-237.992
-285.465
-321.51
-345.131
-357.119
-359.368
-354.404
-344.706
-332.237
-318.332
-304.018
-289.929
-276.416
-263.631
-251.596
-240.221
-229.238
-218.632
-210.541
0.81051
0.329833
0.196909
0.162032
0.128061
0.109092
0.131317
0.2276
0.460549
0.90951
1.68822
2.95318
4.88748
7.64353
11.378
16.1331
21.8125
28.14
34.6254
40.6002
45.2078
47.2376
44.8676
34.4369
11.4323
-27.5241
-79.5055
-140.223
-204.224
-265.578
-319.13
-361.424
-391.027
-408.343
-414.998
-413.379
-406.157
-395.543
-382.958
-369.529
-355.998
-342.804
-330.168
-318.159
-306.724
-295.615
-284.789
-276.548
0.821533
0.328648
0.188478
0.147463
0.10497
0.0751619
0.0825683
0.159836
0.367023
0.780976
1.51316
2.71633
4.57085
7.22775
10.8409
15.4505
20.9525
27.0543
33.2392
38.7981
42.8232
44.0437
40.57
28.6746
3.76661
-37.7459
-92.9466
-157.527
-226.096
-292.754
-352.218
-400.711
-436.372
-459.177
-470.438
-472.28
-467.413
-458.305
-446.609
-433.598
-420.139
-406.779
-393.827
-381.412
-369.522
-357.922
-346.524
-337.841
0.832911
0.327769
0.179764
0.132779
0.0817503
0.0409832
0.0334338
0.0914544
0.272522
0.65086
1.33542
2.47486
4.24621
6.79811
10.2804
14.7293
20.0313
25.8758
31.7184
36.8096
40.1929
40.5413
35.9048
22.5001
-4.31857
-48.3243
-106.6
-174.816
-247.672
-319.361
-384.538
-439.156
-480.935
-509.408
-525.527
-531.151
-528.914
-521.402
-510.501
-497.684
-483.997
-470.136
-456.515
-443.336
-430.623
-418.159
-405.799
-396.287
0.843862
0.326845
0.171369
0.118169
0.0585202
0.00669443
-0.0159456
0.0226143
0.17724
0.519418
1.15535
2.22927
3.91429
6.35562
9.69784
13.9715
19.0519
24.6094
30.0708
34.6475
37.3368
36.7605
30.915
15.9716
-12.7496
-59.1713
-120.365
-191.975
-268.82
-345.242
-415.899
-476.533
-524.467
-558.777
-580.034
-589.816
-590.658
-585.19
-575.475
-563.197
-549.597
-535.521
-521.495
-507.79
-494.476
-481.347
-468.229
-458.131
0.855228
0.32625
0.162684
0.103444
0.0351786
-0.0278199
-0.0656653
-0.0467517
0.0811515
0.386689
0.973106
1.97988
3.57562
5.90119
9.09472
13.1795
18.0182
23.2607
28.3058
32.3267
34.2779
32.7346
25.6464
9.14923
-21.4518
-70.1992
-134.142
-208.895
-289.418
-370.247
-446.116
-512.615
-566.708
-607.009
-633.682
-648.019
-652.363
-649.349
-641.273
-629.982
-616.88
-602.937
-588.796
-574.808
-561.104
-547.491
-533.825
-523.354
0.866125
0.325615
0.154333
0.0888068
0.011833
-0.0624217
-0.115583
-0.116488
-0.015556
0.25292
0.789027
1.7272
3.23096
5.43597
8.47279
12.3559
16.9343
21.8368
26.4345
29.8644
31.0419
28.4999
20.1484
2.09668
-30.3476
-81.3183
-147.831
-225.468
-309.342
-394.232
-475.008
-547.177
-607.39
-653.811
-686.173
-705.456
-713.723
-713.567
-707.48
-697.466
-685.09
-671.451
-657.314
-643.119
-629.06
-614.978
-600.757
-589.921
0.877449
0.325342
0.145691
0.0740458
-0.0116088
-0.0972272
-0.165793
-0.186663
-0.112913
0.118141
0.603246
1.47152
2.88088
4.96094
7.83374
11.5036
15.8049
20.3452
24.4686
27.2788
27.6552
24.0936
14.4701
-5.12378
-39.3623
-92.4431
-161.34
-241.593
-328.486
-417.068
-502.411
-580.007
-646.252
-698.887
-737.193
-761.806
-774.424
-777.556
-773.838
-765.416
-754.013
-740.871
-726.884
-712.599
-698.283
-683.818
-669.117
-657.993
0.888222
0.325041
0.137397
0.0593892
-0.0350497
-0.132098
-0.216153
-0.257125
-0.210741
-0.0174188
0.416093
1.21332
2.52612
4.47728
7.17942
10.6256
14.6349
18.7938
22.4207
24.5886
24.1449
19.5529
8.66016
-12.4511
-48.4235
-103.492
-174.579
-257.18
-346.751
-438.643
-528.179
-610.913
-683.049
-741.939
-786.414
-816.705
-834.119
-841.017
-840.077
-833.582
-823.408
-810.955
-797.253
-782.972
-768.466
-753.667
-738.515
-727.132
0.899493
0.325125
0.128808
0.0446074
-0.0585664
-0.167151
-0.266766
-0.327949
-0.309082
-0.153746
0.22766
0.952855
2.16717
3.98595
6.51155
9.72489
13.4292
17.1903
20.3029
21.812
20.537
14.9129
2.76449
-19.8282
-57.4636
-114.388
-187.467
-272.143
-364.048
-458.854
-552.181
-639.713
-717.537
-782.664
-833.467
-869.748
-892.444
-903.637
-905.934
-901.763
-893.149
-881.645
-868.433
-854.316
-839.748
-824.723
-809.204
-797.636
0.910164
0.325184
0.120586
0.0299501
-0.0820745
-0.202247
-0.317482
-0.398981
-0.407756
-0.290612
0.038277
0.690614
1.80481
3.48815
5.83211
8.80462
12.193
15.5433
18.128
18.9677
16.8578
10.2092
-3.17158
-27.1991
-66.4167
-125.057
-199.924
-286.402
-380.299
-477.612
-574.302
-666.251
-749.501
-820.783
-878.03
-920.585
-949.032
-965.069
-971.118
-969.723
-963.041
-952.78
-940.281
-926.497
-911.998
-896.852
-881.049
-869.376
0.921335
0.32567
0.112072
0.0151545
-0.105639
-0.237499
-0.368403
-0.470293
-0.506804
-0.428001
-0.151959
0.42686
1.43957
2.98492
5.14293
7.86803
10.9317
13.861
15.9087
16.0743
13.1327
5.47493
-9.10608
-34.5131
-75.2244
-135.437
-211.884
-299.897
-395.445
-494.86
-594.47
-690.414
-778.773
-856.062
-919.805
-968.88
-1003.51
-1024.94
-1035.32
-1037.22
-1032.91
-1024.25
-1012.73
-999.487
-985.209
-970.058
-954.049
-942.342
0.931796
0.326144
0.103944
0.000507839
-0.129191
-0.27277
-0.419381
-0.541737
-0.606055
-0.565703
-0.342746
0.162033
1.07215
2.47742
4.44597
6.91833
9.65048
12.1517
13.6574
13.1494
9.38588
0.741575
-15
-41.7234
-83.8335
-145.467
-223.291
-312.574
-409.444
-510.56
-612.637
-712.124
-805.217
-888.292
-958.517
-1014.31
-1055.48
-1082.84
-1098.18
-1103.95
-1102.53
-1095.9
-1085.73
-1073.29
-1059.46
-1044.48
-1028.41
-1016.82
0.942835
0.327079
0.0955232
-0.0142796
-0.152772
-0.308172
-0.470524
-0.61339
-0.705563
-0.703721
-0.534021
-0.103645
0.70302
1.96659
3.74295
5.95859
8.35436
10.4232
11.3858
10.2094
5.63905
-3.96307
-20.8192
-48.7899
-92.1988
-155.102
-234.098
-324.397
-422.272
-524.699
-628.788
-731.341
-828.744
-917.315
-993.924
-1056.55
-1104.52
-1138.29
-1159.25
-1169.57
-1171.65
-1167.58
-1159.16
-1147.86
-1134.71
-1120.11
-1104.11
-1092.72
0.95311
0.32801
0.0875136
-0.0288893
-0.176331
-0.343568
-0.521682
-0.685108
-0.805164
-0.841862
-0.725512
-0.369786
0.332821
1.4535
3.03565
4.99175
7.04818
8.68309
9.10481
7.26935
1.91224
-8.61386
-26.5334
-55.6771
-100.281
-164.301
-244.268
-335.338
-433.919
-537.282
-642.936
-748.065
-849.311
-943.018
-1025.83
-1095.32
-1150.29
-1190.9
-1218.14
-1233.73
-1239.99
-1239.11
-1232.99
-1223.28
-1211.2
-1197.29
-1181.65
-1170.75
0.963974
0.329455
0.0792189
-0.043653
-0.199895
-0.379068
-0.57296
-0.756967
-0.904914
-0.980137
-0.917182
-0.636213
-0.0380542
0.938962
2.32563
4.02056
5.73635
6.93809
6.82423
4.34275
-1.77731
-13.1896
-32.1173
-62.3563
-108.049
-173.032
-253.776
-345.386
-444.392
-548.34
-655.125
-762.337
-866.926
-965.347
-1054.1
-1130.38
-1192.56
-1240.32
-1274.32
-1295.93
-1307.17
-1310.19
-1307.02
-1299.43
-1288.84
-1275.97
-1260.92
-1250.7
0.973962
0.330913
0.0713634
-0.0582048
-0.223431
-0.414538
-0.624204
-0.828821
-1.00465
-1.11837
-1.10879
-0.902583
-0.409046
0.423905
1.61444
3.04759
4.42306
5.19454
4.55307
1.44159
-5.41435
-17.6718
-37.5497
-68.8035
-115.476
-181.272
-262.605
-354.539
-453.71
-557.918
-665.423
-774.23
-881.644
-984.304
-1078.65
-1161.59
-1231.04
-1286.17
-1327.34
-1355.69
-1372.75
-1380.53
-1381.11
-1376.38
-1367.9
-1356.63
-1342.67
-1333.58
0.984628
0.332918
0.0632288
-0.0729116
-0.246937
-0.450083
-0.67553
-0.900756
-1.10445
-1.25658
-1.30031
-1.16876
-0.779832
-0.0909622
0.903398
2.07518
3.11202
3.45802
2.29913
-1.4239
-8.98632
-22.0458
-42.8138
-75.0006
-122.546
-189.005
-270.749
-362.805
-461.906
-566.078
-673.922
-783.853
-893.567
-999.953
-1099.48
-1188.84
-1265.54
-1328.26
-1376.95
-1412.46
-1436.13
-1449.62
-1454.86
-1453.81
-1448.17
-1439.11
-1426.73
-1419.19
0.994362
0.334941
0.0555649
-0.0873696
-0.270402
-0.485572
-0.726781
-0.972627
-1.20416
-1.39461
-1.49153
-1.43446
-1.14994
-0.604872
0.19382
1.10547
1.80666
1.73359
0.0693656
-4.24485
-12.4825
-26.2993
-47.8962
-80.9336
-129.244
-196.222
-278.206
-370.201
-469.022
-572.896
-680.732
-791.344
-902.836
-1012.41
-1116.65
-1212.11
-1295.95
-1366.39
-1422.85
-1465.93
-1496.84
-1516.91
-1527.84
-1531.49
-1529.64
-1523.66
-1513.62
-1508.32
1.00478
0.337576
0.0476362