/*--------------------------------*- C++ -*----------------------------------*\
  =========                 |
  \\      /  F ield         | OpenFOAM: The Open Source CFD Toolbox
   \\    /   O peration     | Website:  https://openfoam.org
    \\  /    A nd           | Version:  10
     \\/     M anipulation  |
\*---------------------------------------------------------------------------*/
FoamFile
{
    format      ascii;
    class       surfaceScalarField;
    location    "5";
    object      phi;
}
// * * * * * * * * * * * * * * * * * * * * * * * * * * * * * * * * * * * * * //

dimensions      [0 3 -1 0 0 0 0];

internalField   nonuniform List<scalar> 
75600
(
0.0100193
-1236.66
1236.67
0.00569574
-1023.84
1023.85
0.0021129
-847.678
847.682
-0.000857257
-701.857
701.86
-0.00331767
-581.158
581.161
-0.00535477
-481.261
481.263
-0.00704169
-398.59
398.592
-0.00844231
-330.185
330.186
-0.00960013
-273.598
273.599
-0.0105584
-226.803
226.804
-0.011352
-188.126
188.126
-0.0120074
-156.181
156.181
-0.0125475
-129.824
129.825
-0.012992
-108.114
108.114
-0.0133553
-90.2713
90.2717
-0.0136511
-75.658
75.6583
-0.0138885
-63.751
63.7513
-0.0140785
-54.1239
54.1241
-0.0142257
-46.4321
46.4322
-0.0143354
-40.4002
40.4003
-0.0144054
-35.8122
35.8123
-0.0144421
-32.5034
32.5034
-0.0144228
-30.3538
30.3538
-0.0143481
-29.284
29.284
-0.014169
-29.146
29.1459
-0.0139231
-23.2206
23.2204
-0.0136204
-18.4915
18.4912
-0.0132946
-14.7193
14.719
-0.0129602
-11.7131
11.7128
-0.0126303
-9.31942
9.31909
-0.0123053
-7.41475
7.41442
-0.0119839
-5.90005
5.89974
-0.011665
-4.69592
4.6956
-0.0113488
-3.73887
3.73856
-0.0110382
-2.97835
2.97804
-0.0107384
-2.37415
2.37386
-0.0104566
-1.89434
1.89406
-0.0102
-1.51356
1.5133
-0.0099749
-1.21172
1.2115
-0.00978708
-0.972943
0.972755
-0.00964062
-0.784684
0.784538
-0.0095376
-0.637081
0.636978
-0.00947698
-0.522408
0.522347
-0.00945625
-0.434674
0.434654
-0.00946831
-0.369297
0.369309
-0.00945855
-0.322884
0.322875
-0.00926786
-0.293041
0.292851
-0.277737
0.277243
-0.00877341
0.0349639
-1236.65
0.0259897
-1023.83
0.0185491
-847.671
0.0123821
-701.851
0.00727024
-581.153
0.0030345
-481.257
-0.000475781
-398.586
-0.00338322
-330.182
-0.00579423
-273.596
-0.00779107
-226.801
-0.00944644
-188.124
-0.0108182
-156.179
-0.011954
-129.823
-0.0128951
-108.113
-0.0136738
-90.2705
-0.0143182
-75.6574
-0.0148497
-63.7505
-0.0152902
-54.1234
-0.0156519
-46.4317
-0.015948
-40.3999
-0.0161809
-35.812
-0.0163626
-32.5032
-0.0164688
-30.3537
-0.0165008
-29.284
-0.0163956
-29.1461
-0.0161667
-23.2209
-0.0158243
-18.4918
-0.0154139
-14.7197
-0.0149587
-11.7136
-0.0144812
-9.3199
-0.0139888
-7.41524
-0.0134855
-5.90056
-0.0129751
-4.69643
-0.0124626
-3.73938
-0.0119558
-2.97886
-0.0114657
-2.37464
-0.0110047
-1.8948
-0.0105848
-1.51398
-0.0102159
-1.21209
-0.00990597
-0.973253
-0.00965918
-0.784931
-0.00947571
-0.637264
-0.00934987
-0.522533
-0.00927006
-0.434754
-0.00920841
-0.369358
-0.00907702
-0.323016
-0.0087211
-0.293397
-0.278437
-0.00802149
0.0594454
-1236.64
0.0453122
-1023.82
0.0336002
-847.659
0.023895
-701.841
0.0158575
-581.145
0.00919592
-481.25
0.00367902
-398.581
-0.000896538
-330.178
-0.00468571
-273.592
-0.00782736
-226.798
-0.0104335
-188.121
-0.0125954
-156.177
-0.0143899
-129.821
-0.0158808
-108.111
-0.0171205
-90.2693
-0.0181534
-75.6563
-0.019015
-63.7496
-0.0197378
-54.1227
-0.0203446
-46.4311
-0.0208562
-40.3994
-0.0212805
-35.8115
-0.0216354
-32.5028
-0.021895
-30.3535
-0.0220596
-29.2838
-0.0220451
-29.1461
-0.0218284
-23.2211
-0.0214199
-18.4922
-0.0208815
-14.7203
-0.0202466
-11.7142
-0.0195516
-9.32059
-0.0188137
-7.41597
-0.0180449
-5.90133
-0.0172562
-4.69722
-0.016459
-3.74018
-0.0156685
-2.97965
-0.0149025
-2.37541
-0.01418
-1.89552
-0.0135182
-1.51464
-0.0129301
-1.21268
-0.0124243
-0.973758
-0.0120024
-0.785353
-0.0116585
-0.637608
-0.0113763
-0.522816
-0.0111261
-0.435004
-0.0108497
-0.369634
-0.0104516
-0.323414
-0.00987899
-0.29397
-0.279234
-0.00908177
0.0840953
-1236.61
0.0647282
-1023.8
0.0486953
-847.643
0.0354209
-701.828
0.0244285
-581.134
0.0153264
-481.241
0.00778675
-398.573
0.0015416
-330.171
-0.00363629
-273.587
-0.00792775
-226.794
-0.0114888
-188.118
-0.0144452
-156.174
-0.0169021
-129.819
-0.0189477
-108.109
-0.0206538
-90.2676
-0.0220819
-75.6549
-0.0232811
-63.7484
-0.0242961
-54.1217
-0.0251597
-46.4302
-0.0259008
-40.3987
-0.0265341
-35.8109
-0.0270825
-32.5023
-0.02752
-30.353
-0.0278448
-29.2835
-0.0279492
-29.146
-0.0277598
-23.2213
-0.0272886
-18.4927
-0.0266158
-14.7209
-0.0257878
-11.715
-0.0248561
-9.32152
-0.0238502
-7.41698
-0.0227911
-5.90239
-0.0216982
-4.69831
-0.0205902
-3.74129
-0.01949
-2.98075
-0.0184223
-2.37648
-0.0174116
-1.89653
-0.0164795
-1.51557
-0.0156399
-1.21352
-0.0148999
-0.974498
-0.0142552
-0.785997
-0.0136907
-0.638172
-0.0131776
-0.523329
-0.0126708
-0.435511
-0.0121064
-0.370199
-0.0114397
-0.32408
-0.0107185
-0.294691
-0.280005
-0.00994772
0.109192
-1236.58
0.0846587
-1023.77
0.0643648
-847.623
0.047577
-701.811
0.0336869
-581.12
0.0221897
-481.23
0.0126728
-398.564
0.00478882
-330.163
-0.0017423
-273.58
-0.0071564
-226.788
-0.0116497
-188.113
-0.015382
-156.17
-0.0184866
-129.816
-0.0210757
-108.107
-0.0232404
-90.2654
-0.0250591
-75.6531
-0.0265943
-63.7469
-0.0279034
-54.1204
-0.0290284
-46.4291
-0.0300074
-40.3977
-0.0308622
-35.8101
-0.0316209
-32.5015
-0.0322583
-30.3524
-0.0327711
-29.283
-0.0330295
-29.1457
-0.0328946
-23.2214
-0.0323826
-18.4932
-0.0315936
-14.7217
-0.0305888
-11.716
-0.0294366
-9.32267
-0.0281795
-7.41824
-0.0268487
-5.90371
-0.0254728
-4.69969
-0.0240778
-3.74268
-0.0226939
-2.98213
-0.0213519
-2.37782
-0.0200805
-1.8978
-0.0189036
-1.51675
-0.0178341
-1.21459
-0.0168751
-0.975457
-0.0160158
-0.786856
-0.015233
-0.638955
-0.0144909
-0.52407
-0.0137455
-0.436256
-0.0129583
-0.370986
-0.0121383
-0.3249
-0.0113513
-0.295478
-0.280778
-0.0105776
0.134893
-1236.55
0.105291
-1023.74
0.080833
-847.598
0.0606154
-701.791
0.0439023
-581.104
0.0300775
-481.216
0.0186419
-398.552
0.00917344
-330.154
0.00133089
-273.572
-0.00516931
-226.782
-0.0105641
-188.108
-0.0150469
-156.166
-0.0187791
-129.812
-0.0218956
-108.104
-0.0245074
-90.2628
-0.0267085
-75.6509
-0.028576
-63.745
-0.0301783
-54.1188
-0.0315683
-46.4277
-0.032793
-40.3965
-0.0338802
-35.809
-0.0348657
-32.5006
-0.0357242
-30.3515
-0.0364519
-29.2823
-0.0368965
-29.1453
-0.0368385
-23.2215
-0.0363006
-18.4937
-0.0354044
-14.7226
-0.0342283
-11.7172
-0.0328593
-9.32404
-0.0313547
-7.41974
-0.0297574
-5.90531
-0.028106
-4.70134
-0.0264344
-3.74435
-0.0247803
-2.98378
-0.0231799
-2.37942
-0.0216649
-1.89932
-0.02026
-1.51816
-0.0189755
-1.21587
-0.0178097
-0.976623
-0.0167463
-0.78792
-0.0157576
-0.639943
-0.0148103
-0.525018
-0.0138753
-0.437191
-0.0129436
-0.371917
-0.0120443
-0.325799
-0.0112166
-0.296305
-0.281602
-0.0103929
0.161114
-1236.5
0.126378
-1023.71
0.0977101
-847.569
0.0740406
-701.767
0.0544899
-581.084
0.0383345
-481.2
0.0249773
-398.539
0.0139258
-330.143
0.00477613
-273.563
-0.00280605
-226.774
-0.00909867
-188.102
-0.0143295
-156.161
-0.018688
-129.808
-0.0223322
-108.1
-0.025393
-90.2597
-0.0279809
-75.6483
-0.030187
-63.7428
-0.0320921
-54.1169
-0.0337593
-46.426
-0.0352449
-40.395
-0.0365849
-35.8076
-0.0378212
-32.4993
-0.0389301
-30.3504
-0.0399068
-29.2813
-0.0405749
-29.1446
-0.0406148
-23.2214
-0.0400582
-18.4943
-0.039051
-14.7236
-0.0376921
-11.7186
-0.0360899
-9.32564
-0.0343195
-7.42151
-0.0324373
-5.90719
-0.0304936
-4.70328
-0.0285312
-3.74631
-0.0265956
-2.98572
-0.0247279
-2.38129
-0.0229622
-1.90108
-0.0213225
-1.51979
-0.0198161
-1.21738
-0.0184366
-0.978002
-0.0171646
-0.789192
-0.015974
-0.641134
-0.0148414
-0.52615
-0.0137557
-0.438276
-0.0127231
-0.37295
-0.0117669
-0.326755
-0.0108959
-0.297176
-0.282492
-0.010006
0.18791
-1236.46
0.147938
-1023.67
0.114989
-847.537
0.087816
-701.74
0.0653984
-581.062
0.0468889
-481.181
0.0315999
-398.524
0.0189595
-330.13
0.00850031
-273.553
-0.000164884
-226.766
-0.00735605
-188.094
-0.0133356
-156.155
-0.0183216
-129.803
-0.0224967
-108.096
-0.0260111
-90.2562
-0.0289926
-75.6453
-0.0315467
-63.7403
-0.033767
-54.1147
-0.0357274
-46.4241
-0.0374944
-40.3932
-0.0391119
-35.806
-0.040629
-32.4978
-0.0420243
-30.349
-0.0432912
-29.28
-0.044227
-29.1437
-0.0443891
-23.2213
-0.0438206
-18.4949
-0.0426953
-14.7248
-0.0411364
-11.7201
-0.0392775
-9.3275
-0.0372148
-7.42357
-0.0350207
-5.90939
-0.0327591
-4.70554
-0.0304825
-3.74859
-0.0282449
-2.98796
-0.0260917
-2.38344
-0.0240588
-1.90311
-0.022169
-1.52168
-0.0204263
-1.21912
-0.0188217
-0.979607
-0.0173367
-0.790677
-0.0159523
-0.642518
-0.0146578
-0.527444
-0.0134537
-0.43948
-0.012347
-0.374056
-0.0113437
-0.327758
-0.0104314
-0.298088
-0.283437
-0.00948617
0.215386
-1236.4
0.170052
-1023.62
0.132733
-847.499
0.102002
-701.709
0.076679
-581.036
0.0557965
-481.16
0.0385653
-398.506
0.0243287
-330.116
0.0125578
-273.541
0.00280945
-226.756
-0.0052798
-188.086
-0.012008
-156.148
-0.0176229
-129.797
-0.0223314
-108.091
-0.0263043
-90.2522
-0.0296868
-75.6419
-0.0325999
-63.7374
-0.0351496
-54.1121
-0.037422
-46.4218
-0.0394937
-40.3911
-0.0414177
-35.8041
-0.0432514
-32.496
-0.0449752
-30.3473
-0.0465812
-29.2784
-0.0478378
-29.1424
-0.0481524
-23.2209
-0.0475825
-18.4954
-0.0463337
-14.726
-0.0445583
-11.7219
-0.0424193
-9.32963
-0.0400377
-7.42595
-0.0375047
-5.91192
-0.0348999
-4.70815
-0.0322865
-3.7512
-0.029727
-2.99052
-0.0272712
-2.3859
-0.0249562
-1.90543
-0.0228031
-1.52384
-0.0208144
-1.22111
-0.0189814
-0.981439
-0.0172909
-0.792367
-0.0157338
-0.644075
-0.014309
-0.528869
-0.0130192
-0.44077
-0.0118615
-0.375214
-0.0108239
-0.328796
-0.00988107
-0.299031
-0.284417
-0.00890107
0.24364
-1236.34
0.19281
-1023.57
0.151036
-847.457
0.116684
-701.675
0.0884196
-581.008
0.0651435
-481.137
0.0459586
-398.487
0.0301257
-330.1
0.0170416
-273.528
0.00621265
-226.745
-0.00277158
-188.077
-0.0102462
-156.141
-0.0164894
-129.791
-0.0217331
-108.086
-0.0261695
-90.2478
-0.0299611
-75.6382
-0.0332444
-63.7341
-0.0361397
-54.1092
-0.0387449
-46.4192
-0.0411484
-40.3887
-0.0434124
-35.8018
-0.0456036
-32.4938
-0.0477052
-30.3452
-0.0497077
-29.2764
-0.0513484
-29.1408
-0.0518525
-23.2204
-0.0512962
-18.496
-0.0499215
-14.7274
-0.0479148
-11.7239
-0.0454736
-9.33208
-0.0427478
-7.42868
-0.0398504
-5.91482
-0.0368789
-4.71112
-0.0339084
-3.75417
-0.0310098
-2.99341
-0.0282372
-2.38867
-0.0256286
-1.90804
-0.0232049
-1.52626
-0.020969
-1.22334
-0.0189163
-0.983492
-0.0170413
-0.794241
-0.0153435
-0.645773
-0.0138243
-0.530388
-0.0124801
-0.442114
-0.011293
-0.376401
-0.0102371
-0.329852
-0.00927863
-0.299989
-0.285409
-0.00828645
0.272782
-1236.27
0.216311
-1023.52
0.169975
-847.411
0.131939
-701.637
0.100697
-580.977
0.0750063
-481.112
0.0538602
-398.466
0.0364281
-330.083
0.0220375
-273.513
0.0101332
-226.733
0.000259186
-188.068
-0.00795821
-156.132
-0.0148279
-129.784
-0.0206076
-108.08
-0.0255112
-90.2429
-0.02972
-75.6339
-0.0333864
-63.7304
-0.0366452
-54.106
-0.0396073
-46.4162
-0.0423731
-40.386
-0.0450159
-35.7992
-0.047612
-32.4912
-0.0501486
-30.3426
-0.0526148
-29.274
-0.0547137
-29.1387
-0.0554524
-23.2197
-0.05493
-18.4965
-0.0534302
-14.7289
-0.0511796
-11.7262
-0.0484158
-9.33484
-0.0453221
-7.43177
-0.042037
-5.9181
-0.0386774
-4.71448
-0.0353318
-3.75752
-0.0320798
-2.99667
-0.0289797
-2.39177
-0.0260716
-1.91095
-0.0233774
-1.52895
-0.0209035
-1.22582
-0.0186519
-0.985743
-0.0166245
-0.796269
-0.0148239
-0.647573
-0.0132461
-0.531966
-0.0118752
-0.443485
-0.0106794
-0.377597
-0.00962103
-0.33091
-0.00866323
-0.300947
-0.286392
-0.00767925
0.30292
-1236.19
0.240642
-1023.46
0.189639
-847.36
0.147852
-701.595
0.113592
-580.943
0.0854684
-481.083
0.0623567
-398.443
0.0433299
-330.064
0.0276386
-273.498
0.0146679
-226.72
0.00391216
-188.057
-0.00504092
-156.123
-0.0125331
-129.777
-0.0188486
-108.074
-0.0242232
-90.2375
-0.0288577
-75.6293
-0.0329213
-63.7263
-0.0365633
-54.1023
-0.0399094
-46.4129
-0.0430726
-40.3828
-0.0461384
-35.7961
-0.0491938
-32.4881
-0.0522315
-30.3396
-0.0552388
-29.271
-0.0578831
-29.136
-0.0589104
-23.2187
-0.0584484
-18.497
-0.0568286
-14.7305
-0.0543247
-11.7287
-0.0512203
-9.33794
-0.0477373
-7.43526
-0.0440434
-5.9218
-0.0402774
-4.71824
-0.036542
-3.76125
-0.032926
-3.00028
-0.029493
-2.3952
-0.0262861
-1.91415
-0.0233309
-1.53191
-0.0206397
-1.22851
-0.018221
-0.988162
-0.0160801
-0.798409
-0.0142157
-0.649437
-0.0126123
-0.533569
-0.0112387
-0.444858
-0.0100524
-0.378783
-0.0090063
-0.331956
-0.00806443
-0.301889
-0.287352
-0.00710455
0.334164
-1236.11
0.265905
-1023.39
0.210119
-847.304
0.164511
-701.55
0.127193
-580.905
0.0966235
-481.053
0.0715434
-398.418
0.0509292
-330.043
0.0339488
-273.481
0.0199243
-226.706
0.0082993
-188.045
-0.00138016
-156.114
-0.00948844
-129.769
-0.0163376
-108.067
-0.0221864
-90.2317
-0.0272553
-75.6242
-0.0317309
-63.7219
-0.0357787
-54.0983
-0.039539
-46.4091
-0.0431394
-40.3792
-0.0466783
-35.7926
-0.0502554
-32.4846
-0.0538699
-30.336
-0.0575081
-29.2673
-0.0607989
-29.1327
-0.062179
-23.2173
-0.0618114
-18.4973
-0.0600818
-14.7322
-0.057319
-11.7314
-0.0538594
-9.3414
-0.0499691
-7.43914
-0.0458489
-5.92591
-0.0416615
-4.72243
-0.0375258
-3.76539
-0.0335403
-3.00427
-0.0297752
-2.39897
-0.026279
-1.91765
-0.0230829
-1.53511
-0.0202059
-1.23138
-0.0176599
-0.990707
-0.0154475
-0.800621
-0.0135561
-0.651329
-0.0119552
-0.53517
-0.0105997
-0.446214
-0.00943779
-0.379944
-0.00841767
-0.332976
-0.00750386
-0.302802
-0.288276
-0.00657966
0.366635
-1236.02
0.292208
-1023.31
0.231513
-847.244
0.18201
-701.5
0.141604
-580.865
0.108571
-481.02
0.0815301
-398.391
0.0593387
-330.021
0.0410877
-273.463
0.0260279
-226.691
0.0135499
-188.033
0.00315774
-156.103
-0.00555773
-129.76
-0.0129364
-108.06
-0.0192615
-90.2254
-0.0247734
-75.6187
-0.029677
-63.717
-0.034155
-54.0938
-0.0383635
-46.4049
-0.0424458
-40.3751
-0.0465151
-35.7885
-0.0506851
-32.4804
-0.0549627
-30.3317
-0.0593342
-29.263
-0.0633891
-29.1287
-0.0651979
-23.2155
-0.064967
-18.4975
-0.0631444
-14.7341
-0.0601221
-11.7344
-0.0562971
-9.34522
-0.0519856
-7.44346
-0.0474258
-5.93047
-0.0428068
-4.72705
-0.0382656
-3.76993
-0.0339115
-3.00862
-0.0298233
-2.40305
-0.0260572
-1.92141
-0.022651
-1.53851
-0.0196282
-1.23441
-0.0169989
-0.993336
-0.0147553
-0.802865
-0.0128694
-0.653214
-0.0112937
-0.536745
-0.00997315
-0.447534
-0.00884726
-0.38107
-0.00786352
-0.333959
-0.00698495
-0.30368
-0.289157
-0.00610362
0.400459
-1235.92
0.319661
-1023.23
0.253934
-847.178
0.200464
-701.447
0.156931
-580.821
0.121435
-480.984
0.0924386
-398.362
0.0686949
-329.997
0.0491961
-273.443
0.0331253
-226.675
0.019817
-188.019
0.0087305
-156.092
-0.000579309
-129.75
-0.00848131
-108.052
-0.0152828
-90.2185
-0.021246
-75.6128
-0.0265952
-63.7116
-0.0315302
-54.0888
-0.0362248
-46.4002
-0.0408392
-40.3705
-0.0455032
-35.7838
-0.0503461
-32.4755
-0.0553854
-30.3267
-0.0606078
-29.2577
-0.0655613
-29.1237
-0.0678878
-23.2132
-0.0678461
-18.4976
-0.0659547
-14.7359
-0.0626786
-11.7377
-0.0584834
-9.34942
-0.0537423
-7.4482
-0.048735
-5.93548
-0.0436799
-4.7321
-0.0387342
-3.77487
-0.03402
-3.01334
-0.0296272
-2.40745
-0.0256208
-1.92542
-0.0220444
-1.54209
-0.0189211
-1.23753
-0.0162519
-0.996005
-0.0140129
-0.805104
-0.0121579
-0.655069
-0.0106249
-0.538278
-0.00934923
-0.448809
-0.0082677
-0.382151
-0.00732443
-0.334902
-0.00648541
-0.304519
-0.289993
-0.0056493
0.435753
-1235.81
0.348369
-1023.14
0.277468
-847.107
0.219954
-701.389
0.173261
-580.775
0.135297
-480.946
0.104365
-398.331
0.0790915
-329.972
0.0583752
-273.422
0.0413236
-226.658
0.0272117
-188.005
0.0154529
-156.08
0.00556497
-129.741
-0.0028515
-108.043
-0.0101296
-90.2113
-0.0165528
-75.6063
-0.0223658
-63.7058
-0.027788
-54.0834
-0.0330111
-46.395
-0.0382143
-40.3653
-0.0435457
-35.7785
-0.0491525
-32.4699
-0.0550649
-30.3208
-0.0612716
-29.2515
-0.0672788
-29.1177
-0.0702271
-23.2102
-0.0704386
-18.4974
-0.068512
-14.7379
-0.0649955
-11.7412
-0.0604325
-9.35398
-0.0552595
-7.45337
-0.0498034
-5.94094
-0.0443146
-4.73759
-0.0389732
-3.78022
-0.0339167
-3.01839
-0.0292478
-2.41212
-0.0250404
-1.92963
-0.0213403
-1.54579
-0.0181632
-1.24071
-0.0154942
-0.998674
-0.0132896
-0.807308
-0.0114847
-0.656873
-0.0100065
-0.539756
-0.00878283
-0.450032
-0.00775039
-0.383183
-0.00685051
-0.335802
-0.00605346
-0.305316
-0.290783
-0.00526281
0.472657
-1235.7
0.378452
-1023.05
0.302234
-847.031
0.2406
-701.328
0.190725
-580.725
0.150297
-480.906
0.117451
-398.298
0.0906853
-329.945
0.0687905
-273.4
0.0507962
-226.64
0.0359153
-187.99
0.0235123
-156.068
0.0130668
-129.73
0.00414754
-108.034
-0.00360419
-90.2035
-0.0104958
-75.5994
-0.0167928
-63.6995
-0.0227344
-54.0775
-0.0285329
-46.3892
-0.0343879
-40.3594
-0.040468
-35.7724
-0.0469409
-32.4635
-0.0538522
-30.3138
-0.0611949
-29.2442
-0.0684321
-29.1105
-0.0721232
-23.2065
-0.0726653
-18.4968
-0.0707476
-14.7398
-0.0670132
-11.745
-0.0620927
-9.3589
-0.0564937
-7.45897
-0.050595
-5.94683
-0.0446831
-4.74351
-0.0389639
-3.78593
-0.0335927
-3.02376
-0.0286863
-2.41702
-0.024325
-1.93399
-0.020551
-1.54956
-0.0173646
-1.24389
-0.0147302
-1.00131
-0.0125829
-0.809455
-0.0108421
-0.658614
-0.00942651
-0.541171
-0.0082598
-0.451199
-0.00727847
-0.384164
-0.00642456
-0.336655
-0.00567049
-0.30607
-0.291529
-0.00492497
0.511311
-1235.57
0.410039
-1022.95
0.328356
-846.949
0.262529
-701.262
0.209447
-580.672
0.166568
-480.863
0.131844
-398.263
0.103629
-329.917
0.080604
-273.377
0.0617142
-226.621
0.0461061
-187.975
0.0330937
-156.055
0.0221161
-129.719
0.0127097
-108.025
0.00448812
-90.1953
-0.00287951
-75.5921
-0.00968162
-63.6927
-0.0161785
-54.071
-0.0226042
-46.3828
-0.0291808
-40.3529
-0.0361006
-35.7655
-0.0435539
-32.456
-0.0516059
-30.3058
-0.060255
-29.2355
-0.0689234
-29.1018
-0.0734969
-23.2019
-0.0744619
-18.4959
-0.07261
-14.7416
-0.068691
-11.7489
-0.0634332
-9.36415
-0.0574229
-7.46498
-0.0510972
-5.95316
-0.044782
-4.74982
-0.0387128
-3.792
-0.0330652
-3.02941
-0.0279686
-2.42212
-0.0235056
-1.93845
-0.0197068
-1.55336
-0.0165513
-1.24705
-0.0139789
-1.00388
-0.0119057
-0.811528
-0.010238
-0.660281
-0.00888858
-0.54252
-0.00778045
-0.452307
-0.00684948
-0.385095
-0.00604154
-0.337463
-0.00532985
-0.306781
-0.292228
-0.00462991
0.551857
-1235.44
0.443264
-1022.84
0.355963
-846.862
0.285867
-701.192
0.22956
-580.615
0.184252
-480.818
0.147697
-398.227
0.118087
-329.887
0.0939919
-273.353
0.0742628
-226.601
0.0579779
-187.958
0.0443973
-156.041
0.0329188
-129.708
0.0230444
-108.015
0.0143598
-90.1866
0.00650827
-75.5842
-0.000820775
-63.6854
-0.00791167
-54.0639
-0.0150215
-46.3757
-0.0223978
-40.3455
-0.0302586
-35.7576
-0.0388201
-32.4474
-0.0481707
-30.2964
-0.0583184
-29.2254
-0.0686454
-29.0915
-0.0742622
-23.1963
-0.0757598
-18.4944
-0.0740448
-14.7433
-0.0699872
-11.7529
-0.0644235
-9.36972
-0.0580273
-7.47137
-0.0513003
-5.95989
-0.0446125
-4.75651
-0.0382322
-3.79838
-0.0323561
-3.03529
-0.0271236
-2.42735
-0.022613
-1.94296
-0.0188355
-1.55714
-0.015744
-1.25014
-0.0132551
-1.00637
-0.011267
-0.813516
-0.00967827
-0.66187
-0.00839633
-0.543801
-0.00734718
-0.453356
-0.00646414
-0.385977
-0.00569895
-0.338228
-0.0050234
-0.307457
-0.292894
-0.00435735
0.594454
-1235.29
0.478263
-1022.72
0.385183
-846.769
0.310748
-701.117
0.251213
-580.556
0.203506
-480.77
0.165172
-398.188
0.134239
-329.857
0.109143
-273.328
0.0886415
-226.581
0.0717389
-187.942
0.0576396
-156.027
0.0456969
-129.696
0.0353782
-108.005
0.0262392
-90.1775
0.0178979
-75.5759
0.0100177
-63.6775
0.00229072
-54.0562
-0.00556643
-46.3678
-0.0138278
-40.3372
-0.0227416
-35.7487
-0.0325531
-32.4376
-0.0433789
-30.2856
-0.0552404
-29.2135
-0.0674821
-29.0792
-0.0743263
-23.1895
-0.0764854
-18.4922
-0.0749951
-14.7448
-0.0708592
-11.7571
-0.0650343
-9.37554
-0.0582896
-7.47812
-0.051199
-5.96698
-0.044181
-4.76353
-0.0375396
-3.80503
-0.0314919
-3.04133
-0.0261821
-2.43266
-0.0216763
-1.94747
-0.0179605
-1.56085
-0.0149597
-1.25314
-0.0125691
-1.00876
-0.0106726
-0.815412
-0.00916512
-0.663377
-0.00795075
-0.545016
-0.00695949
-0.454347
-0.00612345
-0.386813
-0.00540053
-0.338951
-0.00475987
-0.308096
-0.293523
-0.00413043
0.639264
-1235.14
0.515187
-1022.6
0.416165
-846.67
0.337323
-701.038
0.274553
-580.493
0.224494
-480.72
0.184452
-398.148
0.152271
-329.824
0.126259
-273.302
0.105064
-226.56
0.0876128
-187.924
0.0730519
-156.013
0.0606886
-129.683
0.0499537
-107.994
0.040372
-90.1679
0.0315345
-75.567
0.0230785
-63.669
0.0146697
-54.0478
0.00599709
-46.3591
-0.00324425
-40.328
-0.0133346
-35.7386
-0.0245534
-32.4264
-0.0370503
-30.2731
-0.0508646
-29.1997
-0.0653091
-29.0648
-0.0735905
-23.1812
-0.0765617
-18.4892
-0.0754024
-14.746
-0.0712651
-11.7612
-0.0652382
-9.38157
-0.0581964
-7.48516
-0.0507929
-5.97438
-0.0434997
-4.77082
-0.0366577
-3.81187
-0.0305021
-3.04749
-0.0251747
-2.43799
-0.0207223
-1.95192
-0.0171017
-1.56447
-0.0142111
-1.25603
-0.0119275
-1.01104
-0.0101254
-0.817214
-0.00869774
-0.664804
-0.00754882
-0.546164
-0.00661108
-0.455284
-0.00581929
-0.387605
-0.00513345
-0.339637
-0.00452422
-0.308706
-0.294123
-0.00392499
0.686453
-1234.97
0.55419
-1022.47
0.449056
-846.565
0.365742
-700.955
0.299748
-580.427
0.247388
-480.668
0.205719
-398.107
0.17239
-329.791
0.145555
-273.275
0.123755
-226.538
0.105836
-187.906
0.0908798
-155.998
0.0781462
-129.671
0.0670281
-107.983
0.0570185
-90.1579
0.0476797
-75.5577
0.0386214
-63.66
0.0294815
-54.0386
0.019918
-46.3496
0.00959378
-40.3177
-0.00180908
-35.7272
-0.0146081
-32.4136
-0.0289924
-30.2587
-0.0450257
-29.1837
-0.0619943
-29.0478
-0.0719506
-23.1712
-0.0759084
-18.4853
-0.0752073
-14.7467
-0.0711639
-11.7653
-0.0650109
-9.38772
-0.0577385
-7.49244
-0.050087
-5.98203
-0.0425861
-4.77832
-0.0356138
-3.81884
-0.0294179
-3.05368
-0.024131
-2.44327
-0.0197746
-1.95627
-0.0162757
-1.56797
-0.0135081
-1.2588
-0.0113361
-1.01321
-0.00962812
-0.818922
-0.00827756
-0.666154
-0.00719171
-0.54725
-0.00630455
-0.456171
-0.00555523
-0.388354
-0.0049054
-0.340286
-0.00432562
-0.309285
-0.29469
-0.00375688
0.736208
-1234.8
0.595437
-1022.33
0.484019
-846.453
0.396168
-700.867
0.326965
-580.358
0.272377
-480.613
0.229174
-398.064
0.194804
-329.757
0.167256
-273.248
0.144956
-226.516
0.126659
-187.888
0.111382
-155.983
0.0983357
-129.658
0.0868726
-107.971
0.0764526
-90.1475
0.0666083
-75.5479
0.0569201
-63.6503
0.0469954
-54.0287
0.0364605
-46.339
0.02494
-40.3061
0.0120761
-35.7144
-0.00249271
-32.399
-0.0190023
-30.2422
-0.037548
-29.1651
-0.0573983
-29.028
-0.0692978
-23.1593
-0.0744431
-18.4801
-0.0743505
-14.7468
-0.0705167
-11.7691
-0.0643317
-9.3939
-0.0569116
-7.49985
-0.049092
-5.98985
-0.0414634
-4.78595
-0.0344384
-3.82586
-0.0282715
-3.05985
-0.0230787
-2.44846
-0.0188539
-1.9605
-0.015496
-1.57133
-0.0128599
-1.26143
-0.0107999
-1.01527
-0.0091842
-0.820537
-0.00790556
-0.667433
-0.00687819
-0.548277
-0.00603409
-0.457015
-0.00532083
-0.389068
-0.0046961
-0.34091
-0.00413528
-0.309846
-0.295244
-0.00358218
0.788713
-1234.61
0.6391
-1022.18
0.521218
-846.335
0.428774
-700.775
0.356389
-580.285
0.299647
-480.556
0.255026
-398.019
0.219735
-329.721
0.191599
-273.22
0.168914
-226.493
0.150341
-187.869
0.134829
-155.967
0.121535
-129.644
0.10977
-107.96
0.0989604
-90.1367
0.0886071
-75.5375
0.0782595
-63.6399
0.0674932
-54.0179
0.055898
-46.3275
0.0430592
-40.2933
0.0285718
-35.6999
0.0120267
-32.3825
-0.00686799
-30.2233
-0.0282484
-29.1437
-0.0513759
-29.0048
-0.0655197
-23.1452
-0.072082
-18.4736
-0.0727734
-14.7461
-0.0692873
-11.7726
-0.0631841
-9.40001
-0.0557171
-7.50732
-0.0478242
-5.99774
-0.0401588
-4.79362
-0.033164
-3.83286
-0.027094
-3.06592
-0.0220433
-2.45352
-0.0179782
-1.96456
-0.0147748
-1.57453
-0.012274
-1.26393
-0.0103241
-1.01722
-0.00879632
-0.822065
-0.00758407
-0.668645
-0.00660866
-0.549252
-0.00580255
-0.45782
-0.00512105
-0.389748
-0.00452058
-0.341511
-0.00398301
-0.310383
-0.295773
-0.00345374
0.844169
-1234.41
0.685365
-1022.02
0.560834
-846.211
0.463738
-700.678
0.388204
-580.21
0.329404
-480.497
0.283487
-397.973
0.247415
-329.685
0.218829
-273.191
0.195887
-226.47
0.177152
-187.851
0.161498
-155.951
0.148028
-129.631
0.136011
-107.948
0.124836
-90.1255
0.113971
-75.5266
0.102934
-63.6289
0.0912643
-54.0063
0.0785142
-46.3147
0.064224
-40.279
0.0479378
-35.6836
0.0291914
-32.3638
0.00762917
-30.2018
-0.016937
-29.1192
-0.0437769
-28.978
-0.0605011
-23.1285
-0.0687406
-18.4653
-0.0704191
-14.7444
-0.0674429
-11.7755
-0.0615565
-9.40589
-0.0541616
-7.51472
-0.0463051
-6.0056
-0.0387034
-4.80122
-0.0318243
-3.83974
-0.0259152
-3.07183
-0.0210474
-2.45838
-0.0171634
-1.96845
-0.0141225
-1.57757
-0.0117572
-1.2663
-0.00991456
-1.01907
-0.00846961
-0.823509
-0.00732019
-0.669794
-0.00639165
-0.55018
-0.00562095
-0.458591
-0.00496566
-0.390403
-0.00438549
-0.342091
-0.00386503
-0.310904
-0.296287
-0.00335124
0.902789
-1234.19
0.734421
-1021.85
0.603049
-846.079
0.501248
-700.576
0.422608
-580.131
0.361851
-480.437
0.314778
-397.926
0.27808
-329.649
0.249195
-273.162
0.226138
-226.447
0.207365
-187.832
0.191674
-155.936
0.178109
-129.617
0.165893
-107.935
0.154379
-90.114
0.143001
-75.5153
0.131241
-63.6171
0.118603
-53.9936
0.104596
-46.3007
0.0887119
-40.2631
0.0704381
-35.6653
0.0492474
-32.3426
0.0247115
-30.1772
-0.00342097
-29.091
-0.0344477
-28.947
-0.0541249
-23.1088
-0.064335
-18.4551
-0.0672329
-14.7415
-0.0649548
-11.7778
-0.0594426
-9.41141
-0.0522574
-7.5219
-0.0445606
-6.0133
-0.0371302
-4.80865
-0.0304524
-3.84641
-0.0247631
-3.07752
-0.0201117
-2.46303
-0.0164241
-1.97213
-0.0135496
-1.58045
-0.011318
-1.26853
-0.00957855
-1.02081
-0.00821114
-0.824876
-0.00712096
-0.670884
-0.00623518
-0.551065
-0.00549962
-0.459326
-0.0048693
-0.391033
-0.00431388
-0.342646
-0.00381261
-0.311404
-0.296781
-0.00331777
0.964809
-1233.97
0.7865
-1021.67
0.648094
-845.941
0.541543
-700.469
0.459851
-580.049
0.397261
-480.374
0.349187
-397.878
0.312029
-329.611
0.283014
-273.133
0.259999
-226.424
0.241325
-187.813
0.22571
-155.92
0.212137
-129.604
0.199783
-107.923
0.187961
-90.1021
0.176069
-75.5034
0.163554
-63.6046
0.149878
-53.9799
0.134506
-46.2853
0.116876
-40.2455
0.0964121
-35.6449
0.0725176
-32.3187
0.0446792
-30.1494
0.0125699
-29.0589
-0.0231563
-28.9112
-0.0461956
-23.0857
-0.0587038
-18.4426
-0.0630842
-14.7371
-0.0617191
-11.7792
-0.056761
-9.41636
-0.0499412
-7.52872
-0.0425392
-6.0207
-0.0353923
-4.81579
-0.0289986
-3.85281
-0.0235811
-3.08293
-0.0191723
-2.46744
-0.0156896
-1.97562
-0.0129816
-1.58315
-0.0108782
-1.27063
-0.0092365
-1.02245
-0.00793836
-0.826173
-0.00690083
-0.671921
-0.00604753
-0.551918
-0.00533721
-0.460037
-0.00471756
-0.391652
-0.0041708
-0.343193
-0.00367
-0.311905
-0.297281
-0.00316931
1.03045
-1233.73
0.84179
-1021.48
0.696139
-845.795
0.584781
-700.358
0.500095
-579.965
0.435795
-480.31
0.386881
-397.829
0.349446
-329.574
0.320477
-273.104
0.297668
-226.401
0.279239
-187.795
0.263821
-155.905
0.250333
-129.59
0.237905
-107.911
0.225806
-90.09
0.213401
-75.491
0.200093
-63.5913
0.185306
-53.9652
0.168454
-46.2685
0.148916
-40.226
0.126046
-35.622
0.0991702
-32.2918
0.0676776
-30.1179
0.0311516
-29.0224
-0.00982454
-28.8703
-0.0366713
-23.0589
-0.0518417
-18.4274
-0.0580007
-14.731
-0.057792
-11.7794
-0.0535911
-9.42057
-0.0473096
-7.535
-0.0403473
-6.02766
-0.0335979
-4.82254
-0.0275666
-3.85884
-0.0224654
-3.08803
-0.0183177
-2.47159
-0.0150431
-1.97889
-0.0124967
-1.5857
-0.0105121
-1.27262
-0.00895864
-1.024
-0.00772173
-0.82741
-0.00673007
-0.672912
-0.00590786
-0.55274
-0.00522241
-0.460722
-0.00461815
-0.392256
-0.00408806
-0.343724
-0.00359443
-0.312397
-0.297771
-0.00310321
1.09995
-1233.47
0.900494
-1021.28
0.747369
-845.642
0.63114
-700.242
0.543509
-579.877
0.477625
-480.244
0.428044
-397.779
0.390513
-329.536
0.361776
-273.075
0.339345
-226.379
0.321313
-187.777
0.306218
-155.89
0.292913
-129.577
0.280476
-107.898
0.268135
-90.0777
0.255213
-75.478
0.241076
-63.5772
0.225099
-53.9492
0.206644
-46.25
0.185026
-40.2044
0.159523
-35.5965
0.129372
-32.2616
0.0938519
-30.0824
0.0524396
-28.981
0.00562719
-28.8234
-0.0255066
-23.0278
-0.0437399
-18.4092
-0.0520076
-14.7227
-0.0532281
-11.7782
-0.0500108
-9.42378
-0.0444559
-7.54056
-0.0380858
-6.03403
-0.0318474
-4.82878
-0.0262517
-3.86443
-0.0215046
-3.09278
-0.0176312
-2.47546
-0.0145642
-1.98196
-0.0121715
-1.58809
-0.010296
-1.27449
-0.00881773
-1.02548
-0.00763084
-0.828597
-0.00667109
-0.673872
-0.00586872
-0.553543
-0.00519325
-0.461397
-0.00459424
-0.392855
-0.00406446
-0.344252
-0.00356857
-0.312894
-0.298267
-0.00307347
1.17358
-1233.2
0.962868
-1021.07
0.802029
-845.481
0.680863
-700.121
0.590344
-579.787
0.523012
-480.177
0.472939
-397.729
0.435509
-329.499
0.407199
-273.047
0.385327
-226.357
0.367851
-187.759
0.353212
-155.875
0.340193
-129.564
0.327817
-107.886
0.315269
-90.0652
0.301831
-75.4646
0.286823
-63.5622
0.269575
-53.9319
0.249389
-46.2298
0.225511
-40.1805
0.197135
-35.5681
0.163399
-32.2279
0.12346
-30.0424
0.0766657
-28.9342
0.0233951
-28.7702
-0.0125337
-22.9918
-0.0342621
-18.3874
-0.0450037
-14.712
-0.047955
-11.7752
-0.0459696
-9.42577
-0.0413432
-7.54518
-0.0357224
-6.03965
-0.0301066
-4.83439
-0.0250141
-3.86952
-0.0206535
-3.09714
-0.0170644
-2.47905
-0.0142025
-1.98482
-0.0119558
-1.59034
-0.0101794
-1.27627
-0.00876607
-1.02689
-0.00762133
-0.829741
-0.00668501
-0.674807
-0.00589806
-0.554329
-0.00522706
-0.462067
-0.00463068
-0.393451
-0.00409827
-0.344784
-0.00359462
-0.313395
-0.298768
-0.00309163
1.25162
-1232.91
1.02916
-1020.85
0.860348
-845.313
0.734166
-699.994
0.640812
-579.693
0.572164
-480.108
0.521779
-397.679
0.48465
-329.462
0.456966
-273.019
0.435839
-226.336
0.419084
-187.742
0.405036
-155.861
0.392408
-129.551
0.380165
-107.874
0.367446
-90.0524
0.353489
-75.4506
0.337569
-63.5462
0.318963
-53.9133
0.296913
-46.2078
0.270588
-40.1542
0.239089
-35.5366
0.201448
-32.1903
0.15668
-29.9977
0.103984
-28.8815
0.043602
-28.7098
0.00234621
-22.9506
-0.0233374
-18.3618
-0.036953
-14.6983
-0.0419663
-11.7702
-0.041482
-9.42625
-0.0379972
-7.54867
-0.0332851
-6.04436
-0.0283999
-4.83928
-0.0238732
-3.87405
-0.019927
-3.10109