/*--------------------------------*- C++ -*----------------------------------*\
  =========                 |
  \\      /  F ield         | OpenFOAM: The Open Source CFD Toolbox
   \\    /   O peration     | Website:  https://openfoam.org
    \\  /    A nd           | Version:  10
     \\/     M anipulation  |
\*---------------------------------------------------------------------------*/
FoamFile
{
    format      ascii;
    class       volVectorField;
    location    "5";
    object      U;
}
// * * * * * * * * * * * * * * * * * * * * * * * * * * * * * * * * * * * * * //

dimensions      [0 1 -1 0 0 0 0];

internalField   nonuniform List<vector> 
38016
(
(52.0812 -7.12312e-06 0)
(52.0812 -5.50118e-05 4.47805e-26)
(52.0816 -9.43086e-06 -5.40865e-26)
(52.0822 -2.59762e-05 0)
(52.0827 -1.59188e-05 0)
(52.0835 -4.70875e-06 0)
(52.0843 2.89671e-05 -2.56681e-25)
(52.0853 8.88467e-05 -2.81259e-21)
(52.0864 0.000165609 6.57796e-25)
(52.0877 0.000302771 -7.93491e-25)
(52.0892 0.000481343 -2.88749e-21)
(52.0909 0.000719482 6.33974e-25)
(52.0927 0.00114364 -3.63553e-21)
(52.0948 0.00172293 -5.63173e-21)
(52.0969 0.00254643 4.27176e-21)
(52.099 0.003857 0)
(52.1009 0.00565581 0)
(52.1021 0.00826843 0)
(52.1021 0.012066 -8.89176e-24)
(52.1002 0.0174801 1.02179e-23)
(52.0953 0.0251795 -3.42961e-21)
(52.0866 0.0370881 4.11698e-21)
(52.0699 0.0547321 -4.92743e-21)
(52.0472 0.081899 2.43478e-23)
(51.9991 0.128771 -6.87173e-21)
(51.9432 0.209363 9.01963e-26)
(51.862 0.320713 -5.55983e-21)
(51.7666 0.458409 6.77933e-23)
(51.6541 0.621058 1.31849e-25)
(51.5324 0.800672 0)
(51.4089 0.993848 1.71478e-25)
(51.2899 1.19807 2.92897e-22)
(51.1798 1.41026 -1.29848e-20)
(51.0809 1.62746 0)
(50.9949 1.84593 0)
(50.9217 2.06055 0)
(50.8607 2.26539 0)
(50.8111 2.45362 -3.83696e-21)
(50.7704 2.61945 -2.55136e-21)
(50.738 2.75816 -1.07949e-22)
(50.7123 2.86536 -1.07977e-22)
(50.6921 2.93813 7.73374e-21)
(50.6749 2.97481 -1.61379e-21)
(50.6576 2.97508 1.95941e-21)
(50.6359 2.9375 0)
(50.6051 2.8488 0)
(50.5462 2.72176 -1.15921e-20)
(50.3533 2.83608 1.06786e-20)
(52.0812 -2.38556e-05 -2.07466e-21)
(52.0812 -6.20314e-05 1.77044e-25)
(52.0816 -2.05951e-05 3.98011e-21)
(52.0822 -3.99419e-05 0)
(52.0828 -3.3015e-05 0)
(52.0836 -2.53476e-05 -4.31756e-21)
(52.0844 4.31814e-06 1.58082e-26)
(52.0854 5.95458e-05 2.81295e-21)
(52.0866 0.000132195 -4.45204e-21)
(52.0879 0.00026473 -5.19889e-25)
(52.0895 0.000440605 -2.83012e-21)
(52.0912 0.000679435 -1.31524e-24)
(52.0931 0.001109 3.63399e-21)
(52.0953 0.00170284 5.62866e-21)
(52.0975 0.00255875 -4.26804e-21)
(52.0997 0.00392667 1.26318e-20)
(52.1018 0.00582183 9.08542e-21)
(52.1032 0.00859385 -1.3372e-23)
(52.1034 0.0126416 -2.13145e-24)
(52.1018 0.0184458 2.03592e-23)
(52.0973 0.0267425 1.02488e-20)
(52.0888 0.0396265 -1.22881e-20)
(52.0727 0.0587515 4.94772e-21)
(52.049 0.0883605 1.09436e-20)
(52.0026 0.139199 -6.69585e-21)
(51.9407 0.225599 -2.92173e-23)
(51.853 0.344962 5.49001e-21)
(51.7494 0.492559 1.99314e-20)
(51.6299 0.666679 -1.72953e-20)
(51.5031 0.858405 0)
(51.3768 1.0636 0)
(51.2574 1.27903 1.73351e-20)
(51.149 1.50092 1.26191e-20)
(51.0534 1.72563 -1.81931e-20)
(50.9716 1.94867 0)
(50.903 2.16425 1.73873e-20)
(50.8462 2.36589 0)
(50.7999 2.54646 3.83781e-21)
(50.7611 2.70005 -5.17122e-21)
(50.7285 2.82213 6.43405e-21)
(50.7004 2.90876 -8.39947e-21)
(50.6748 2.9577 -2.60842e-21)
(50.6491 2.96823 -1.66301e-21)
(50.6201 2.94139 2.02225e-21)
(50.5836 2.87741 0)
(50.5375 2.76407 0)
(50.463 2.61817 -8.87658e-21)
(50.2496 2.73242 1.08947e-20)
(52.0812 -4.11389e-05 -6.66039e-23)
(52.0812 -6.82441e-05 0)
(52.0816 -3.04789e-05 -7.90407e-21)
(52.0822 -5.22557e-05 0)
(52.0828 -4.80643e-05 0)
(52.0835 -4.35338e-05 4.31754e-21)
(52.0844 -1.73899e-05 -1.24518e-25)
(52.0854 3.38094e-05 2.001e-25)
(52.0865 0.000102717 4.45206e-21)
(52.0879 0.000230771 -5.14139e-25)
(52.0894 0.000402978 5.72064e-21)
(52.0912 0.000639928 9.0527e-21)
(52.093 0.00106988 -1.43294e-20)
(52.0952 0.00166908 -1.11764e-23)
(52.0974 0.00254111 7.5081e-24)
(52.0995 0.00394093 -1.26245e-20)
(52.1016 0.00589413 -9.08342e-21)
(52.1029 0.00876969 1.86198e-24)
(52.1032 0.0129893 -1.55315e-23)
(52.1016 0.0190753 0)
(52.0971 0.0278211 -2.03714e-20)
(52.0888 0.041468 8.16996e-21)
(52.0732 0.0618137 -9.66307e-21)
(52.0501 0.093475 -2.1713e-20)
(52.0074 0.147801 1.88557e-22)
(51.949 0.23991 0)
(51.8659 0.36718 2.18147e-20)
(51.7668 0.524404 -1.97644e-20)
(51.6519 0.709321 1.7171e-20)
(51.5292 0.911964 0)
(51.4064 1.12737 7.99607e-22)
(51.2897 1.35153 1.53881e-20)
(51.1832 1.58 3.21794e-21)
(51.0887 1.80851 1.35878e-20)
(51.007 2.03202 -2.25669e-20)
(50.9372 2.24427 -1.73654e-20)
(50.8779 2.4385 0)
(50.8273 2.60766 -1.5674e-20)
(50.7822 2.74612 5.22241e-21)
(50.741 2.84991 -6.49555e-21)
(50.7017 2.91598 1.69282e-20)
(50.662 2.94324 -1.05127e-20)
(50.6196 2.93236 1.65404e-20)
(50.5714 2.88607 -3.78557e-21)
(50.5146 2.8061 1.39735e-22)
(50.4494 2.68231 -2.71775e-20)
(50.3558 2.5424 5.5651e-23)
(50.1351 2.65437 -2.24977e-20)
(52.0812 -5.87599e-05 6.55761e-21)
(52.0812 -7.48007e-05 0)
(52.0816 -4.07772e-05 3.92319e-21)
(52.0822 -6.50976e-05 6.92196e-25)
(52.0828 -6.37824e-05 1.05269e-20)
(52.0835 -6.25519e-05 -3.06509e-25)
(52.0844 -4.01215e-05 -6.77234e-21)
(52.0854 6.81239e-06 0)
(52.0866 7.1677e-05 -8.65947e-21)
(52.0879 0.00019494 0)
(52.0895 0.00036317 1.12041e-20)
(52.0912 0.000597967 -9.05473e-21)
(52.093 0.00102821 1.43294e-20)
(52.0952 0.00163307 4.87774e-24)
(52.0974 0.0025222 1.68613e-20)
(52.0996 0.00395603 2.5091e-20)
(52.1017 0.00597136 -1.94078e-23)
(52.1031 0.00895731 2.28569e-23)
(52.1034 0.0133592 0)
(52.1019 0.019743 -2.1717e-20)
(52.0975 0.0289619 2.70184e-20)
(52.0893 0.0434002 -1.60742e-20)
(52.0741 0.0650062 2.87054e-20)
(52.0514 0.0987556 1.08399e-20)
(52.0091 0.156768 1.32811e-20)
(51.9516 0.255139 1.15107e-22)
(51.8706 0.391191 -2.87152e-22)
(51.7734 0.559314 -3.97942e-20)
(51.6608 0.756723 3.49343e-20)
(51.5403 0.972397 0)
(51.4195 1.20053 0)
(51.3047 1.43631 2.13174e-22)
(51.1998 1.67463 -2.58127e-20)
(51.1064 1.91059 0)
(51.0252 2.13859 2.55781e-20)
(50.9551 2.35199 0)
(50.8941 2.54383 0)
(50.8402 2.70725 1.5637e-20)
(50.7896 2.83705 -1.01415e-20)
(50.7406 2.92989 -1.32638e-20)
(50.6907 2.98381 1.67591e-20)
(50.6379 2.99893 1.0748e-20)
(50.5801 2.97735 2.67432e-20)
(50.5152 2.92315 -3.20392e-20)
(50.4419 2.83874 0)
(50.3605 2.71717 -7.88698e-23)
(50.2476 2.59949 -5.18156e-20)
(50.0252 2.71963 5.14709e-20)
(52.0812 -7.67109e-05 -4.41638e-21)
(52.0812 -8.15201e-05 -6.82276e-25)
(52.0816 -5.12727e-05 7.62277e-21)
(52.0822 -7.82054e-05 -6.26692e-21)
(52.0828 -7.98181e-05 -1.05269e-20)
(52.0836 -8.19394e-05 -8.20758e-21)
(52.0844 -6.32688e-05 -6.54953e-21)
(52.0854 -2.06383e-05 0)
(52.0866 4.01569e-05 8.6598e-21)
(52.0879 0.000158688 -1.88536e-25)
(52.0895 0.000323138 -1.12012e-20)
(52.0912 0.000556201 -1.94244e-24)
(52.0931 0.00098761 0)
(52.0953 0.00159973 6.21137e-24)
(52.0975 0.0025088 -1.68687e-20)
(52.0997 0.00398147 -2.50907e-20)
(52.1018 0.00606675 -1.80039e-20)
(52.1032 0.00917566 2.50027e-20)
(52.1035 0.0137797 0)
(52.1021 0.0204921 4.33295e-20)
(52.0979 0.0302337 -1.34657e-20)
(52.0898 0.0455468 1.61057e-20)
(52.075 0.0685504 -3.79319e-20)
(52.0524 0.104644 -4.60076e-23)
(52.0114 0.166795 4.62153e-23)
(51.9549 0.272187 1.14048e-22)
(51.8763 0.4181 -4.35147e-20)
(51.7814 0.598492 4.00495e-20)
(51.6716 0.810045 4.47462e-24)
(51.5543 1.04058 0)
(51.4369 1.28336 -1.61458e-21)
(51.3257 1.53272 -3.3041e-20)
(51.2244 1.78282 2.5788e-20)
(51.1345 2.0281 0)
(51.0562 2.26241 0)
(50.988 2.47883 -3.54909e-20)
(50.9276 2.67025 1.23232e-20)
(50.8721 2.83016 -1.54011e-20)
(50.8179 2.9539 -5.55757e-22)
(50.7626 3.03897 2.64091e-20)
(50.7039 3.0845 -1.71476e-20)
(50.6401 3.0918 -2.15104e-20)
(50.5697 3.06412 -5.38224e-20)
(50.4918 3.00637 7.26072e-20)
(50.4062 2.92147 7.73715e-20)
(50.3114 2.80736 -8.82667e-20)
(50.1828 2.71854 -6.17955e-21)
(49.961 2.85005 -6.5993e-21)
(52.0812 -9.49846e-05 0)
(52.0812 -8.84502e-05 0)
(52.0816 -6.20023e-05 -7.62144e-21)
(52.0822 -9.1599e-05 6.26629e-21)
(52.0828 -9.62012e-05 0)
(52.0835 -0.000101735 8.20765e-21)
(52.0844 -8.68801e-05 1.33229e-20)
(52.0854 -4.86043e-05 -5.73288e-25)
(52.0866 8.06969e-06 0)
(52.0879 0.00012189 0)
(52.0895 0.000282665 -2.19328e-20)
(52.0912 0.000514255 0)
(52.0931 0.000947448 0)
(52.0953 0.00156795 -2.19202e-20)
(52.0975 0.00249896 -3.34421e-20)
(52.0997 0.00401391 2.4921e-20)
(52.1018 0.00617477 1.79847e-20)
(52.1033 0.00941562 -4.98797e-20)
(52.1037 0.0142355 -3.07463e-23)
(52.1023 0.0212978 -2.1569e-20)
(52.0982 0.0315953 2.65354e-20)
(52.0902 0.047834 0)
(52.0759 0.0723162 1.88341e-20)
(52.0537 0.110883 0)
(52.014 0.177415 0)
(51.959 0.290263 -1.12897e-22)
(51.8833 0.446664 6.42459e-20)
(51.7913 0.640109 -3.94932e-20)
(51.6853 0.866684 -3.49138e-20)
(51.5721 1.11295 0)
(51.459 1.37114 -4.47486e-20)
(51.3522 1.63464 -2.03462e-21)
(51.2553 1.89682 -5.55487e-20)
(51.1694 2.15143 -2.79048e-20)
(51.0944 2.39184 -1.30226e-20)
(51.0284 2.61088 7.96272e-20)
(50.9684 2.80151 -1.23817e-20)
(50.9112 2.9577 1.54713e-20)
(50.8529 3.07554 2.08478e-20)
(50.7911 3.15351 -4.07827e-20)
(50.7236 3.1919 5.09764e-20)
(50.6494 3.19305 4.36977e-20)
(50.5681 3.16106 -6.66755e-20)
(50.4796 3.10141 -8.12883e-21)
(50.384 3.01782 7.80646e-20)
(50.2784 2.91382 -8.34382e-20)
(50.1398 2.85617 6.16677e-21)
(49.9241 2.99596 6.58539e-21)
(52.0812 -0.000113669 0)
(52.0812 -9.55688e-05 0)
(52.0816 -7.29741e-05 7.39981e-21)
(52.0822 -0.000105317 -1.31997e-24)
(52.0828 -0.000112974 1.44716e-24)
(52.0835 -0.000121995 -2.91272e-24)
(52.0844 -0.000111032 -1.28759e-20)
(52.0854 -7.71879e-05 2.05066e-20)
(52.0866 -2.4724e-05 0)
(52.0879 8.4356e-05 -2.69542e-20)
(52.0895 0.000241477 2.19337e-20)
(52.0912 0.000471754 2.53251e-24)
(52.0931 0.000907209 -3.04642e-24)
(52.0953 0.00153706 2.19209e-20)
(52.0975 0.0024918 3.34337e-20)
(52.0997 0.00405229 -2.48968e-20)
(52.1019 0.00629419 -1.61233e-23)
(52.1034 0.00967581 2.49001e-20)
(52.1038 0.0147254 3.06414e-23)
(52.1025 0.0221589 0)
(52.0986 0.0330451 -2.66386e-20)
(52.0907 0.0502585 -3.12634e-20)
(52.0769 0.0762965 0)
(52.055 0.11745 0)
(52.0167 0.188552 1.19809e-22)
(51.9633 0.309165 -1.50297e-22)
(51.8908 0.476473 -4.26036e-20)
(51.8021 0.683449 3.94832e-20)
(51.7003 0.925515 6.45448e-22)
(51.5917 1.18787 -1.85755e-21)
(51.4834 1.46162 4.928e-20)
(51.3816 1.73912 -7.04301e-20)
(51.2895 2.01292 4.89597e-20)
(51.2081 2.27606 7.45296e-20)
(51.1367 2.52151 0)
(51.0728 2.74203 -3.55819e-20)
(51.013 2.93078 -1.24217e-20)
(50.9538 3.08247 4.74345e-20)
(50.8911 3.19416 -4.17086e-20)
(50.8227 3.2654 2.70359e-20)
(50.747 3.29759 0)
(50.6637 3.29394 1.08304e-20)
(50.5733 3.25911 -8.18405e-23)
(50.4765 3.19904 -6.62135e-20)
(50.3734 3.11844 1.66132e-19)
(50.2608 3.02596 1.09574e-21)
(50.1182 3.00018 -9.98541e-20)
(49.9161 3.14275 1.34888e-20)
(52.0812 -0.000132759 9.92363e-21)
(52.0812 -0.000102928 -8.92726e-21)
(52.0816 -8.42292e-05 7.17423e-21)
(52.0822 -0.000119384 1.1916e-20)
(52.0828 -0.000130176 -3.54184e-25)
(52.0835 -0.00014277 1.71664e-24)
(52.0844 -0.000135789 2.5531e-20)
(52.0854 -0.000106474 -2.05078e-20)
(52.0866 -5.83331e-05 2.92015e-25)
(52.0879 4.5948e-05 2.69558e-20)
(52.0895 0.000199406 0)
(52.0912 0.000428494 -3.466e-20)
(52.0931 0.000866664 -3.96599e-24)
(52.0953 0.00150683 4.76197e-24)
(52.0975 0.00248712 9.24351e-24)
(52.0998 0.00409651 4.94945e-20)
(52.102 0.00642518 1.91706e-23)
(52.1034 0.00995688 -2.25767e-23)
(52.104 0.0152507 0)
(52.1028 0.0230779 0)
(52.0989 0.0345873 0)
(52.0913 0.0528263 3.1386e-20)
(52.0779 0.0805005 5.35019e-24)
(52.0564 0.124353 -2.00865e-20)
(52.0196 0.200212 0)
(51.968 0.328876 0)
(51.8989 0.507464 0)
(51.8139 0.728385 3.90209e-20)
(51.7166 0.986308 -6.93475e-20)
(51.613 1.26499 6.03019e-20)
(51.51 1.55429 4.05181e-20)
(51.4135 1.84549 7.96975e-20)
(51.3265 2.13027 4.61102e-20)
(51.2496 2.40103 -3.72882e-20)
(51.1816 2.65041 0)
(51.1194 2.8713 0)
(51.0594 3.05728 -2.32594e-20)
(50.9976 3.20404 -3.10008e-20)
(50.9302 3.30972 2.08602e-20)
(50.8551 3.37501 -2.69826e-20)
(50.7718 3.40229 7.01298e-20)
(50.6806 3.39537 -1.74322e-19)
(50.5831 3.35922 1.20709e-19)
(50.4804 3.30011 0)
(50.3728 3.22366 -1.58218e-19)
(50.2574 3.14246 1.80494e-19)
(50.1164 3.1472 1.26948e-20)
(49.9335 3.28628 -1.3467e-20)
(52.0812 -0.000152344 -2.01267e-20)
(52.0812 -0.000110502 8.92931e-21)
(52.0816 -9.57726e-05 -1.45733e-20)
(52.0822 -0.000133833 -1.19171e-20)
(52.0828 -0.000147841 0)
(52.0835 -0.000164099 1.12466e-24)
(52.0844 -0.000161201 1.22065e-20)
(52.0854 -0.000136522 0)
(52.0866 -9.2829e-05 -3.21995e-20)
(52.0879 6.58288e-06 0)
(52.0895 0.000156363 7.76086e-25)
(52.0912 0.00038437 3.46609e-20)
(52.0931 0.000825721 0)
(52.0953 0.0014772 0)
(52.0976 0.00248499 9.20933e-24)
(52.0998 0.00414684 -4.95319e-20)
(52.102 0.00656833 1.60205e-23)
(52.1035 0.01026 -4.93988e-20)
(52.1041 0.0158134 0)
(52.103 0.0240578 0)
(52.0993 0.0362265 0)
(52.0918 0.055544 -6.3143e-23)
(52.0789 0.0849364 6.75961e-23)
(52.0579 0.131602 2.00095e-20)
(52.0227 0.212403 0)
(51.973 0.349394 0)
(51.9076 0.53962 4.07735e-20)
(51.8266 0.774866 -7.72065e-20)
(51.7343 1.04896 3.07607e-22)
(51.6361 1.34414 -5.81789e-20)
(51.5388 1.64892 -4.63652e-20)
(51.4479 1.95342 7.07784e-20)
(51.3662 2.24848 -5.21541e-20)
(51.2938 2.52591 0)
(51.229 2.77818 0)
(51.1682 2.99848 9.00869e-20)
(51.1074 3.18108 -2.33442e-20)
(51.0424 3.32279 -3.18851e-20)
(50.97 3.42297 4.18115e-20)
(50.8887 3.48336 2.70539e-20)
(50.7986 3.5071 -7.01926e-20)
(50.7014 3.49834 8.62042e-20)
(50.599 3.46204 0)
(50.493 3.4047 0)
(50.3841 3.33246 -2.95775e-20)
(50.2702 3.26074 0)
(50.1345 3.29293 -2.54235e-20)
(49.9742 3.42223 0)
(52.0812 -0.000172419 1.02016e-20)
(52.0812 -0.000118346 0)
(52.0816 -0.000107644 -1.41331e-20)
(52.0822 -0.000148685 -1.15064e-20)
(52.0828 -0.000166 -1.89163e-20)
(52.0835 -0.000186026 -2.20891e-24)
(52.0844 -0.00018732 -4.92742e-20)
(52.0854 -0.000167399 -3.57818e-24)
(52.0866 -0.00012829 3.22009e-20)
(52.0879 -3.38336e-05 1.40949e-24)
(52.0895 0.000112239 4.19838e-20)
(52.0912 0.000339273 0)
(52.0931 0.000784284 0)
(52.0953 0.00144813 0)
(52.0976 0.00248546 -3.28897e-20)
(52.0998 0.00420351 4.91864e-20)
(52.1021 0.00672418 -3.54821e-20)
(52.1036 0.0105861 4.94269e-20)
(52.1043 0.0164152 -3.03295e-23)
(52.1032 0.0251012 0)
(52.0997 0.0379662 5.26081e-23)
(52.0924 0.0584155 -5.79484e-23)
(52.08 0.0896083 0)
(52.0595 0.139198 -3.86568e-20)
(52.026 0.225114 1.13537e-22)
(51.9784 0.37069 -1.42402e-22)
(51.9169 0.572874 -4.11788e-20)
(51.8404 0.822773 3.4233e-22)
(51.7535 1.11329 6.77049e-20)
(51.6612 1.42503 5.9401e-20)
(51.5699 1.7451 3.24065e-21)
(51.4849 2.06239 -7.47858e-20)
(51.4086 2.36693 0)
(51.3406 2.65004 0)
(51.2786 2.90418 -5.20767e-20)
(51.2188 3.12306 -7.13511e-20)
(51.1566 3.30187 4.80283e-20)
(51.0882 3.43868 3.18497e-20)
(51.0109 3.53407 -7.89919e-24)
(50.9239 3.59067 -5.40029e-20)
(50.8285 3.61212 7.01526e-20)
(50.7271 3.60255 2.16803e-21)
(50.6221 3.56671 -8.02579e-20)
(50.5155 3.51106 -1.65673e-20)
(50.4085 3.44202 1.97154e-20)
(50.2993 3.37676 -1.84269e-19)
(50.1716 3.43245 4.21094e-19)
(50.0351 3.54647 -2.16639e-19)
(52.0812 -0.000193079 -1.5601e-24)
(52.0812 -0.000126431 -1.73937e-20)
(52.0816 -0.000119847 2.80433e-20)
(52.0822 -0.000163975 1.15075e-20)
(52.0828 -0.00018469 1.89175e-20)
(52.0835 -0.000208591 1.62391e-24)
(52.0844 -0.000214198 2.44153e-20)
(52.0854 -0.000199165 2.10726e-24)
(52.0866 -0.000164787 -1.15202e-24)
(52.0879 -7.53899e-05 1.38973e-24)
(52.0895 6.69324e-05 -4.71807e-22)
(52.0912 0.000293098 5.72887e-26)
(52.0931 0.000742247 0)
(52.0953 0.00141956 -4.2657e-20)
(52.0976 0.00248855 3.28846e-20)
(52.0999 0.00426671 -4.91761e-20)
(52.1021 0.0068932 3.54683e-20)
(52.1037 0.010936 4.91037e-20)
(52.1044 0.0170574 3.40867e-23)
(52.1035 0.0262101 3.84793e-24)
(52.1001 0.039809 3.66549e-24)
(52.093 0.0614441 3.00727e-20)
(52.0811 0.0945183 6.60241e-23)
(52.0612 0.147137 3.86573e-20)
(52.0295 0.238327 0)
(51.9842 0.392716 -2.10882e-22)
(51.9269 0.607133 2.64566e-22)
(51.8553 0.871944 -3.83059e-20)
(51.7742 1.17903 9.26335e-22)
(51.6882 1.5073 -2.91243e-22)
(51.6033 1.84233 9.19447e-20)
(51.5245 2.17179 -7.51749e-20)
(51.4535 2.48492 6.06521e-21)
(51.3899 2.7727 -8.41736e-20)
(51.3303 3.02773 6.43973e-20)
(51.2708 3.24452 0)
(51.2069 3.41936 0)
(51.1349 3.55163 3.16724e-20)
(51.0529 3.64304 -4.06223e-20)
(50.9613 3.69689 2.03611e-21)
(50.8621 3.71702 -1.72347e-19)
(50.7585 3.70718 8.59884e-20)
(50.6534 3.67172 -2.70806e-20)
(50.5486 3.61691 1.65396e-20)
(50.4461 3.5493 1.59236e-19)
(50.3437 3.48694 -1.81663e-19)
(50.2253 3.56216 0)
(50.1118 3.65652 -2.19374e-19)
(52.0812 -0.000214316 -2.20925e-20)
(52.0812 -0.000134814 -1.7092e-20)
(52.0816 -0.000132422 -1.39108e-20)
(52.0822 -0.000179724 2.22004e-20)
(52.0828 -0.000203943 -1.98439e-24)
(52.0835 -0.000231838 -2.88654e-20)
(52.0844 -0.000241889 0)
(52.0854 -0.000231889 3.76916e-20)
(52.0866 -0.000202403 3.07427e-20)
(52.0879 -0.000118183 2.52216e-20)
(52.0895 2.034e-05 -8.25589e-20)
(52.0912 0.00024575 -4.53768e-25)
(52.0931 0.000699495 0)
(52.0953 0.0013914 8.50959e-20)
(52.0976 0.00249427 6.5236e-20)
(52.0999 0.00433661 4.88594e-20)
(52.1022 0.00707584 -1.58695e-23)
(52.1038 0.0113108 -4.91074e-20)
(52.1045 0.0177415 0)
(52.1037 0.0273865 4.27592e-23)
(52.1005 0.0417574 -4.82244e-23)
(52.0936 0.0646315 -3.01328e-20)
(52.0823 0.0996663 -6.52346e-23)
(52.063 0.155412 8.06405e-23)
(52.0331 0.252017 -2.23812e-20)
(51.9904 0.415408 -3.94033e-20)
(51.9376 0.642278 3.8814e-20)
(51.8712 0.922181 1.50909e-19)
(51.7964 1.24589 2.52601e-21)
(51.7171 1.59052 -5.6479e-20)
(51.6389 1.94009 -9.70541e-20)
(51.5664 2.28097 3.07813e-22)
(51.5008 2.60174 1.03231e-19)
(51.4411 2.89317 7.41812e-20)
(51.3836 3.14825 -2.72143e-20)
(51.324 3.36246 1.41661e-19)
(51.2579 3.53334 5.07426e-20)
(51.1823 3.66159 -6.18031e-20)
(51.0963 3.74986 4.14917e-20)
(51.0012 3.80184 8.26827e-20)
(50.9 3.82121 -2.40439e-19)
(50.7962 3.81113 1.71385e-19)
(50.693 3.77535 -2.18443e-19)
(50.5922 3.72 5.44808e-19)
(50.4957 3.65162 -3.12844e-19)
(50.4014 3.58872 0)
(50.2924 3.67978 -4.35888e-19)
(50.1999 3.75142 4.45729e-19)
(52.0812 -0.00023623 2.20933e-20)
(52.0812 -0.000143467 5.15847e-20)
(52.0816 -0.000145375 -1.34759e-20)
(52.0822 -0.000195968 -4.39895e-20)
(52.0828 -0.000223795 0)
(52.0835 -0.000255808 2.88664e-20)
(52.0844 -0.000270444 0)
(52.0854 -0.000265633 -3.76929e-20)
(52.0866 -0.000241214 -3.07415e-20)
(52.0879 -0.000162305 -2.52252e-20)
(52.0895 -2.76468e-05 8.16194e-20)
(52.0912 0.000197106 3.31165e-20)
(52.0931 0.000655924 -5.34335e-20)
(52.0953 0.00136358 -4.24334e-20)
(52.0976 0.00250265 -6.52328e-20)
(52.0999 0.00441338 -4.88613e-20)
(52.1022 0.0072725 0)
(52.1039 0.011711 0)
(52.1047 0.0184685 -3.37966e-23)
(52.104 0.0286319 -4.15538e-20)
(52.101 0.0438129 5.07123e-20)
(52.0943 0.0679784 0)
(52.0835 0.10505 0)
(52.0649 0.164009 0)
(52.0369 0.266148 4.38272e-20)
(51.9969 0.43869 7.90183e-20)
(51.949 0.678165 -3.93272e-20)
(51.8882 0.973252 -7.49913e-20)
(51.8202 1.31351 0)
(51.748 1.67423 0)
(51.6768 2.03776 -6.3885e-21)
(51.6107 2.38925 7.79106e-20)
(51.5503 2.71666 -1.03107e-19)
(51.4942 3.01079 1.95863e-20)
(51.4382 3.26519 -7.58114e-20)
(51.378 3.47652 -7.05545e-20)
(51.3095 3.64366 -2.31802e-22)
(51.2306 3.7685 -6.30121e-20)
(51.1414 3.85438 0)
(51.0442 3.90511 2.15514e-19)
(50.9426 3.92385 -1.68649e-19)
(50.8405 3.91305 0)
(50.7409 3.87582 0)
(50.6455 3.81823 -1.64602e-20)
(50.5558 3.74686 0)
(50.4701 3.68037 -2.26764e-20)
(50.3694 3.78411 2.54051e-20)
(50.2957 3.83135 -1.35507e-20)
(52.0811 -0.000258811 -2.32388e-20)
(52.0812 -0.000152448 -1.4826e-22)
(52.0816 -0.000158748 -1.30351e-20)
(52.0822 -0.000212727 4.31823e-20)
(52.0828 -0.000244281 -1.74992e-20)
(52.0835 -0.000280547 -3.06308e-24)
(52.0844 -0.00029992 0)
(52.0854 -0.000300466 2.68592e-24)
(52.0866 -0.000281303 -3.24148e-24)
(52.0879 -0.000207855 0)
(52.0895 -7.71396e-05 -4.72033e-22)
(52.0912 0.000147059 -3.31186e-20)
(52.0931 0.000611451 5.34382e-20)
(52.0953 0.00133601 -8.39305e-20)
(52.0976 0.00251366 0)
(52.0999 0.00449713 0)
(52.1023 0.0074835 0)
(52.104 0.0121373 0)
(52.1048 0.0192395 3.36561e-23)
(52.1042 0.0299474 4.15593e-20)
(52.1014 0.0459762 -1.01094e-19)
(52.0949 0.0714837 -5.94744e-23)
(52.0848 0.110663 6.36657e-23)
(52.0668 0.172911 -3.58247e-20)
(52.0408 0.280673 -2.17406e-20)
(52.0038 0.462464 -7.6953e-20)
(51.961 0.714621 7.74037e-22)
(51.9064 1.02488 -9.71087e-22)
(51.8455 1.38151 6.5972e-20)
(51.7808 1.7579 0)
(51.7168 2.13473 0)
(51.6571 2.49591 -7.83946e-20)
(51.6017 2.82896 1.19091e-20)
(51.5488 3.12491 -1.94416e-20)
(51.4938 3.37809 1.77258e-19)
(51.4326 3.58643 -6.96247e-20)
(51.3617 3.75019 -4.71663e-20)
(51.2799 3.87223 6.42212e-20)
(51.1885 3.95634 -2.04556e-19)
(51.0906 4.00609 -1.0999e-19)
(50.9903 4.02396 2.97638e-20)
(50.8914 4.01152 3.86114e-19)
(50.7965 3.9715 -2.11512e-19)
(50.707 3.90991 2.96372e-19)
(50.6246 3.83365 -3.09682e-19)
(50.5469 3.76101 -3.18957e-19)
(50.4536 3.87514 4.00649e-19)
(50.3963 3.89734 0)
(52.0812 -0.000282163 4.70546e-20)
(52.0812 -0.000161727 -3.37418e-20)
(52.0816 -0.000172544 2.6503e-20)
(52.0822 -0.000230039 -4.05577e-22)
(52.0828 -0.000265438 1.75e-20)
(52.0835 -0.000306096 7.01539e-24)
(52.0844 -0.000330369 -4.84645e-24)
(52.0854 -0.000336454 3.57071e-20)
(52.0866 -0.000322747 4.34611e-24)
(52.0879 -0.000254927 -5.2429e-24)
(52.0895 -0.000128245 -4.01072e-20)
(52.0912 9.54967e-05 2.3322e-24)
(52.0931 0.000565974 -5.26562e-20)
(52.0954 0.00130863 4.69693e-22)
(52.0976 0.00252729 6.44379e-20)
(52.1 0.00458796 1.32517e-23)
(52.1023 0.00770914 -1.57245e-23)
(52.104 0.0125903 0)
(52.105 0.0200551 3.35197e-23)
(52.1044 0.0313335 3.50373e-24)
(52.1018 0.0482472 5.03367e-20)
(52.0956 0.0751444 0)
(52.0861 0.116497 -3.28244e-20)
(52.0689 0.182094 7.0793e-20)
(52.045 0.295536 1.5112e-22)
(52.0111 0.486614 3.80187e-20)
(51.9737 0.751444 -3.70674e-20)
(51.9256 1.07676 1.40909e-21)
(51.8723 1.44944 -5.07753e-21)
(51.8155 1.84097 3.07533e-21)
(51.7588 2.23031 6.27885e-21)
(51.7055 2.60024 1.29151e-19)
(51.6548 2.93796 -1.00702e-19)
(51.6047 3.23496 -1.92682e-20)
(51.5502 3.48652 -7.74204e-20)
(51.4877 3.69196 1.38454e-19)
(51.4145 3.8528 4.64227e-20)
(51.3305 3.97262 0)
(51.238 4.05535 2.96743e-22)
(51.1407 4.10409 5.27385e-20)
(51.0431 4.12048 0)
(50.9483 4.10537 -4.27049e-20)
(50.8589 4.06121 2.64095e-20)
(50.7755 3.99408 -3.25272e-20)
(50.7001 3.91146 0)
(50.6295 3.83087 -2.24885e-20)
(50.5426 3.95387 0)
(50.4992 3.95101 0)
(52.0811 -0.000306275 -2.38191e-20)
(52.0812 -0.000171367 3.34604e-20)
(52.0816 -0.000186808 -2.56376e-20)
(52.0822 -0.000247925 2.01737e-20)
(52.0828 -0.000287301 0)
(52.0835 -0.000332502 0)
(52.0844 -0.000361848 4.3494e-20)
(52.0854 -0.000373666 -3.57086e-20)
(52.0866 -0.000365632 0)
(52.0879 -0.000303621 -3.52288e-24)
(52.0895 -0.000181074 4.24725e-24)
(52.0912 4.2299e-05 -6.43741e-20)
(52.0931 0.000519402 5.26594e-20)
(52.0954 0.00128143 8.34733e-20)
(52.0977 0.00254354 -2.7246e-22)
(52.1 0.00468594 0)
(52.1024 0.00794964 0)
(52.1041 0.0130702 2.55268e-23)
(52.1051 0.0209157 -2.975e-23)
(52.1047 0.0327904 -8.21124e-20)
(52.1023 0.0506247 4.71289e-23)
(52.0963 0.0789558 0)
(52.0874 0.122539 6.50544e-20)
(52.071 0.191527 -3.49867e-20)
(52.0493 0.310665 0)
(52.0188 0.510999 0)
(51.9871 0.788397 3.781e-20)
(51.946 1.12852 -7.1352e-20)
(51.9006 1.51681 -6.50506e-20)
(51.852 1.9228 0)
(51.8029 2.32379 0)
(51.7557 2.70148 -7.20691e-22)
(51.7094 3.04297 1.27578e-19)
(51.6615 3.34039 -3.38365e-20)
(51.6071 3.59013 9.95984e-20)
(51.5433 3.79289 -6.40035e-22)
(51.4681 3.95129 -1.41864e-19)
(51.3826 4.06935 5.82791e-20)
(51.2901 4.15086 -1.24158e-19)
(51.1948 4.19829 4.68469e-19)
(51.1007 4.2124 -2.62605e-19)
(51.0107 4.19356 0)
(50.9269 4.14403 -2.6369e-20)
(50.8495 4.07026 0)
(50.78 3.9802 6.56091e-19)
(50.716 3.89067 -7.05262e-19)
(50.6343 4.02126 0)
(50.6025 3.99373 0)
(52.0812 -0.000331256 0)
(52.0812 -0.000181335 -1.66575e-20)
(52.0816 -0.000201544 4.3421e-22)
(52.0822 -0.000266424 -4.11621e-20)
(52.0828 -0.000309908 -3.28868e-20)
(52.0835 -0.000359808 2.60551e-20)
(52.0844 -0.000394411 -4.3496e-20)
(52.0854 -0.000412167 -5.09918e-24)
(52.0866 -0.000410034 5.66188e-20)
(52.0879 -0.00035403 -4.69735e-20)
(52.0895 -0.000235734 1.53204e-24)
(52.0912 -1.26468e-05 6.43689e-20)
(52.0931 0.00047161 3.75122e-24)
(52.0954 0.00125434 8.25246e-20)
(52.0977 0.00256251 -6.41767e-20)
(52.1 0.0047912 -9.61333e-20)
(52.1024 0.00820519 7.81639e-24)
(52.1042 0.0135773 0)
(52.1052 0.0218215 0)
(52.1049 0.0343175 8.21329e-20)
(52.1027 0.0531067 -4.68793e-23)
(52.0971 0.0829112 -1.14735e-22)
(52.0888 0.128774 -3.22383e-20)
(52.0732 0.201173 -3.37177e-20)
(52.0537 0.325979 1.91646e-22)
(52.0268 0.535459 -2.40201e-22)
(52.0012 0.825211 -3.53522e-20)
(51.9674 1.17977 6.76694e-20)
(51.9305 1.58308 3.42122e-21)
(51.8902 2.00274 4.59505e-20)
(51.8487 2.41444 9.64651e-20)
(51.8076 2.79891 -8.57225e-20)
(51.7652 3.14333 2.30504e-20)
(51.7191 3.44068 3.76784e-20)
(51.6645 3.68857 -1.46594e-19)
(51.5993 3.88898 -1.38698e-19)
(51.5225 4.04538 8.45532e-20)
(51.4365 4.16198 2.38964e-19)
(51.3451 4.24222 0)
(51.2526 4.2878 -5.17222e-20)
(51.1627 4.29876 3.00712e-19)
(51.0778 4.27519 -2.87801e-19)
(50.9993 4.21934 -4.45642e-19)
(50.9274 4.13811 5.0338e-19)
(50.863 4.04002 -3.80867e-20)
(50.8047 3.94094 0)
(50.7266 4.07812 2.4304e-20)
(50.7045 4.02682 8.61724e-19)
(52.0811 -0.000357091 0)
(52.0812 -0.0001917 0)
(52.0816 -0.000216798 2.51999e-20)
(52.0822 -0.000285557 1.97781e-20)
(52.0828 -0.000333295 3.28874e-20)
(52.0835 -0.00038806 -5.63625e-22)
(52.0844 -0.000428113 0)
(52.0854 -0.000452028 0)
(52.0865 -0.000456039 -5.66106e-20)
(52.0879 -0.000406255 6.99171e-22)
(52.0895 -0.000292337 -7.64208e-20)
(52.0912 -6.94583e-05 -6.82194e-24)
(52.0931 0.000422482 -5.14818e-20)
(52.0954 0.00122724 -4.74121e-22)
(52.0977 0.00258422 0)
(52.1 0.00490394 3.18797e-22)
(52.1024 0.0084761 7.36605e-24)
(52.1042 0.014112 -1.09702e-23)
(52.1054 0.0227725 -3.31461e-23)
(52.1052 0.0359142 7.9444e-23)
(52.1031 0.0556901 -4.66442e-23)
(52.0978 0.0870023 5.67089e-20)
(52.0902 0.135181 -3.15155e-20)
(52.0755 0.210989 5.43986e-22)
(52.0583 0.341383 -1.87258e-20)
(52.0352 0.559811 -3.40774e-20)
(52.0159 0.861582 -5.22062e-22)
(51.9899 1.23007 -3.19855e-20)
(51.9617 1.64766 0)
(51.9301 2.0801 -1.06646e-19)
(51.8961 2.5015 -7.44629e-20)
(51.8608 2.8918 -1.5148e-20)
(51.822 3.23843 9.68194e-20)
(51.7772 3.53539 -3.71725e-20)
(51.7223 3.78154 -5.04255e-20)
(51.6558 3.97998 -1.36115e-19)
(51.5781 4.13478 -9.66267e-20)
(51.4923 4.25005 5.62375e-20)
(51.4029 4.32875 1.60564e-19)
(51.314 4.37183 -4.06741e-19)
(51.2286 4.37885 2.23649e-19)
(51.1486 4.34971 2.92038e-19)
(51.075 4.2869 -3.29032e-19)
(51.0078 4.19776 -5.05543e-19)
(50.9478 4.09149 6.30809e-19)
(50.894 3.98267 2.14849e-20)
(50.8188 4.1259 -2.42739e-20)
(50.8047 4.05192 -8.49641e-19)
(52.0811 -0.000383898 -2.61783e-20)
(52.0812 -0.000202424 8.44025e-24)
(52.0816 -0.000232573 -5.47394e-24)
(52.0822 -0.000305364 -5.85203e-20)
(52.0828 -0.000357498 3.14769e-20)
(52.0835 -0.000417302 -2.54847e-20)
(52.0844 -0.000463011 1.54181e-24)
(52.0854 -0.000493313 -2.32419e-24)
(52.0866 -0.000503725 -5.93392e-24)
(52.0879 -0.000460388 7.0101e-22)
(52.0895 -0.000350987 1.51903e-19)
(52.0912 -0.000128247 9.19624e-24)
(52.0931 0.000371906 1.53644e-19)
(52.0954 0.00120003 -4.69563e-22)
(52.0977 0.00260854 1.91404e-24)
(52.1 0.00502425 1.91323e-19)
(52.1024 0.00876275 -6.9179e-20)
(52.1043 0.0146748 0)
(52.1055 0.023769 -1.65187e-23)
(52.1054 0.0375796 1.89825e-23)
(52.1036 0.0583716 -4.88923e-20)
(52.0985 0.0912193 -4.69971e-22)
(52.0916 0.141739 3.14686e-20)
(52.0779 0.220924 3.30603e-20)
(52.063 0.356768 3.71794e-20)
(52.0439 0.58385 4.99086e-20)
(52.0313 0.897181 6.88322e-20)
(52.0134 1.27894 6.67727e-20)
(51.9944 1.70994 4.60327e-21)
(51.9716 2.15416 4.70843e-20)
(51.9451 2.58424 -1.1893e-20)
(51.9153 2.97946 3.27601e-20)
(51.8796 3.32771 -9.31288e-20)
(51.8358 3.62411 -3.24555e-20)
(51.7804 3.86874 9.67848e-20)
(51.713 4.06563 8.93455e-22)
(51.635 4.21911 0)
(51.5503 4.33305 -5.85334e-20)
(51.4636 4.40982 0)
(51.3786 4.44975 -2.04254e-19)
(51.2977 4.45209 -7.91619e-21)
(51.2224 4.4168 6.08641e-19)
(51.153 4.34665 -4.00533e-19)
(51.0898 4.24945 -4.97964e-19)
(51.0333 4.13514 -4.56899e-20)
(50.9832 4.01678 6.5587e-19)
(50.91 4.16573 0)
(50.9027 4.07052 8.10587e-19)
(52.0811 -0.000411662 5.29517e-20)
(52.0812 -0.000213579 0)
(52.0816 -0.000248916 -2.39127e-20)
(52.0822 -0.000325866 5.77204e-20)
(52.0828 -0.000382555 -3.14788e-20)
(52.0835 -0.00044758 2.4359e-20)
(52.0844 -0.000499159 4.35928e-24)
(52.0854 -0.000536092 -3.23817e-20)
(52.0865 -0.000553174 2.2104e-24)
(52.0879 -0.000516526 4.55594e-20)
(52.0895 -0.000411793 -7.5468e-20)
(52.0912 -0.000189127 0)
(52.0931 0.000319764 -1.02157e-19)
(52.0954 0.0011726 -8.15974e-20)
(52.0977 0.00263535 1.26171e-19)
(52.1 0.00515188 -1.90684e-19)
(52.1025 0.009065 1.82294e-22)
(52.1043 0.0152659 -1.57844e-24)
(52.1056 0.0248113 1.00744e-23)
(52.1056 0.0393133 8.08811e-20)
(52.104 0.0611481 9.75515e-20)
(52.0993 0.0955518 -5.61796e-20)
(52.093 0.148423 3.05942e-20)
(52.0803 0.230924 -3.19222e-20)
(52.0678 0.37202 -1.81816e-20)
(52.0529 0.607353 -5.17898e-22)
(52.0472 0.931643 -3.35096e-20)
(52.0379 1.32586 -3.04303e-20)
(52.0283 1.76928 -3.21502e-21)
(52.0145 2.22419 -7.45265e-21)
(51.9954 2.66192 9.33822e-21)
(51.9707 3.06123 0)
(51.9379 3.41065 -1.19048e-19)
(51.8948 3.70647 9.89912e-20)
(51.839 3.9499 0)
(51.7711 4.14562 6.52784e-20)
(51.6934 4.29798 -9.04427e-20)
(51.6105 4.41044 1.13763e-19)
(51.527 4.48485 0)
(51.446 4.52103 -2.00999e-19)
(51.3694 4.51816 3.11352e-19)
(51.298 4.47634 6.26422e-22)
(51.2324 4.39875 -5.00591e-20)
(51.172 4.29349 0)
(51.1188 4.1715 -5.8345e-19)
(51.071 4.04381 6.65965e-19)
(50.9995 4.19814 -7.51028e-19)
(50.9979 4.08295 7.89004e-19)
(52.0811 -0.000440501 -2.67768e-20)
(52.0812 -0.000225129 0)
(52.0816 -0.000265831 4.74003e-20)
(52.0822 -0.000347106 -5.61201e-20)
(52.0828 -0.000408505 0)
(52.0835 -0.000478937 -5.6364e-22)
(52.0844 -0.000536612 -3.90376e-20)
(52.0854 -0.000580429 6.41165e-20)
(52.0865 -0.000604462 -3.5248e-24)